 Entering Gaussian System, Link 0=g16
 Initial command:
 /apps/gent/RHEL8/zen3x-ib/software/Gaussian/g16_C.01-iimpi-2020b/g16/l1.exe "/tmp/25139058/Gau-2743111.inp" -scrdir="/tmp/25139058/"
 Entering Link 1 = /apps/gent/RHEL8/zen3x-ib/software/Gaussian/g16_C.01-iimpi-2020b/g16/l1.exe.bin PID=   2743113.
  
 Copyright (c) 1988-2019, Gaussian, Inc.  All Rights Reserved.
  
 This is part of the Gaussian(R) 16 program.  It is based on
 the Gaussian(R) 09 system (copyright 2009, Gaussian, Inc.),
 the Gaussian(R) 03 system (copyright 2003, Gaussian, Inc.),
 the Gaussian(R) 98 system (copyright 1998, Gaussian, Inc.),
 the Gaussian(R) 94 system (copyright 1995, Gaussian, Inc.),
 the Gaussian 92(TM) system (copyright 1992, Gaussian, Inc.),
 the Gaussian 90(TM) system (copyright 1990, Gaussian, Inc.),
 the Gaussian 88(TM) system (copyright 1988, Gaussian, Inc.),
 the Gaussian 86(TM) system (copyright 1986, Carnegie Mellon
 University), and the Gaussian 82(TM) system (copyright 1983,
 Carnegie Mellon University). Gaussian is a federally registered
 trademark of Gaussian, Inc.
  
 This software contains proprietary and confidential information,
 including trade secrets, belonging to Gaussian, Inc.
  
 This software is provided under written license and may be
 used, copied, transmitted, or stored only in accord with that
 written license.
  
 The following legend is applicable only to US Government
 contracts under FAR:
  
                    RESTRICTED RIGHTS LEGEND
  
 Use, reproduction and disclosure by the US Government is
 subject to restrictions as set forth in subparagraphs (a)
 and (c) of the Commercial Computer Software - Restricted
 Rights clause in FAR 52.227-19.
  
 Gaussian, Inc.
 340 Quinnipiac St., Bldg. 40, Wallingford CT 06492
  
  
 ---------------------------------------------------------------
 Warning -- This program may not be used in any manner that
 competes with the business of Gaussian, Inc. or will provide
 assistance to any competitor of Gaussian, Inc.  The licensee
 of this program is prohibited from giving any competitor of
 Gaussian, Inc. access to this program.  By using this program,
 the user acknowledges that Gaussian, Inc. is engaged in the
 business of creating and licensing software in the field of
 computational chemistry and represents and warrants to the
 licensee that it is not a competitor of Gaussian, Inc. and that
 it will not use this program in any manner prohibited above.
 ---------------------------------------------------------------
  

 Cite this work as:
 Gaussian 16, Revision C.01,
 M. J. Frisch, G. W. Trucks, H. B. Schlegel, G. E. Scuseria, 
 M. A. Robb, J. R. Cheeseman, G. Scalmani, V. Barone, 
 G. A. Petersson, H. Nakatsuji, X. Li, M. Caricato, A. V. Marenich, 
 J. Bloino, B. G. Janesko, R. Gomperts, B. Mennucci, H. P. Hratchian, 
 J. V. Ortiz, A. F. Izmaylov, J. L. Sonnenberg, D. Williams-Young, 
 F. Ding, F. Lipparini, F. Egidi, J. Goings, B. Peng, A. Petrone, 
 T. Henderson, D. Ranasinghe, V. G. Zakrzewski, J. Gao, N. Rega, 
 G. Zheng, W. Liang, M. Hada, M. Ehara, K. Toyota, R. Fukuda, 
 J. Hasegawa, M. Ishida, T. Nakajima, Y. Honda, O. Kitao, H. Nakai, 
 T. Vreven, K. Throssell, J. A. Montgomery, Jr., J. E. Peralta, 
 F. Ogliaro, M. J. Bearpark, J. J. Heyd, E. N. Brothers, K. N. Kudin, 
 V. N. Staroverov, T. A. Keith, R. Kobayashi, J. Normand, 
 K. Raghavachari, A. P. Rendell, J. C. Burant, S. S. Iyengar, 
 J. Tomasi, M. Cossi, J. M. Millam, M. Klene, C. Adamo, R. Cammi, 
 J. W. Ochterski, R. L. Martin, K. Morokuma, O. Farkas, 
 J. B. Foresman, and D. J. Fox, Gaussian, Inc., Wallingford CT, 2019.
 
 ******************************************
 Gaussian 16:  AS64L-G16RevC.01  3-Jul-2019
                 5-Oct-2023 
 ******************************************
 %nproc=64
 Will use up to   64 processors via shared memory.
 %mem=70GB
 %chk=PA_TP_ext_freq.chk
 ----------------------------------------------------------------------
 #P B3LYP/6-311++G(d,p) EmpiricalDispersion=GD3 freq(noraman) SCF=YQC N
 oSymm
 ----------------------------------------------------------------------
 1/10=4,30=1,38=1/1,3;
 2/12=2,15=1,17=6,18=5,40=1/2;
 3/5=4,6=6,7=1111,11=2,25=1,30=1,71=2,74=-5,124=31,140=1/1,2,3;
 4//1;
 5/5=2,8=4,13=1,38=1,98=1/8,2,8;
 8/6=4,10=90,11=11/1;
 11/6=1,8=1,9=11,15=111,16=1,31=1/1,2,10;
 10/6=1,31=1/2;
 6/7=2,8=2,9=2,10=2,28=1/1;
 7/8=1,10=1,25=1,30=1/1,2,3,16;
 1/10=4,30=1/3;
 99//99;
 Leave Link    1 at Thu Oct  5 08:54:17 2023, MaxMem=  9395240960 cpu:               0.9 elap:               0.0
 (Enter /apps/gent/RHEL8/zen3x-ib/software/Gaussian/g16_C.01-iimpi-2020b/g16/l101.exe.bin)
 --------------------------
 Restart from PA_TP_ext.log
 --------------------------
 Symbolic Z-matrix:
 Charge =  0 Multiplicity = 1
 C                    -0.39489  -1.6332    0.18658 
 C                    -0.22447   1.17529   0.09891 
 C                    -1.46522  -0.84421   0.62551 
 C                     0.84587   0.3863   -0.34002 
 C                    -1.37531   0.53904   0.58223 
 C                     0.75596  -0.99695  -0.29674 
 H                     1.59402  -1.59679  -0.63439 
 H                    -2.21337   1.13887   0.91988 
 H                     1.7571    0.83843  -0.70904 
 H                    -2.37646  -1.29634   0.99452 
 N                    -0.41182  -3.03647   0.20238 
 C                    -1.34752  -3.83784   0.71829 
 C                    -1.30221  -5.22135   0.68572 
 C                    -2.42445  -5.93292   1.30547 
 C                    -2.40604  -7.39099   1.28464 
 C                    -1.30877  -8.1449    0.67034 
 C                    -0.2138   -7.3931    0.06682 
 C                    -0.18769  -5.92793   0.06427 
 N                    -0.20753   2.57856   0.0831 
 C                     0.72816   3.37992  -0.43284 
 C                     0.68281   4.76343  -0.40035 
 C                     1.80502   5.47499  -1.02015 
 C                     1.78663   6.93306  -0.9993 
 C                     0.68925   7.68698  -0.38522 
 C                    -0.4057    6.93519   0.21834 
 C                    -0.43176   5.47002   0.22101 
 O                    -1.38326   4.84182   0.74107 
 O                     2.75131   4.84854  -1.55031 
 O                     0.69127   8.93942  -0.37939 
 O                    -3.3708   -5.30646   1.8355 
 O                     0.76383  -5.29972  -0.45575 
 O                    -1.31086  -9.39733   0.66435 
 C                    -1.47644   7.57826   0.81692 
 C                     2.81196   7.67396  -1.56312 
 C                    -3.43135  -8.13189   1.84849 
 C                     0.85687  -8.03616  -0.53191 
 H                     1.58511   2.92544  -0.91556 
 H                    -0.98772   3.09882   0.50578 
 H                     0.36834  -3.55673  -0.22036 
 H                    -2.20445  -3.38336   1.20106 
 N                    -1.61576   8.90292   0.90319 
 H                    -2.25232   6.952     1.24047 
 N                     3.88493   7.1535   -2.16278 
 H                     2.72693   8.75256  -1.50864 
 N                     0.99612  -9.36081  -0.61832 
 H                     1.63268  -7.40987  -0.95553 
 N                    -4.50427  -7.61143   2.44824 
 H                    -3.34649  -9.21049   1.79365 
 C                    -2.66779   9.62287   1.49693 
 H                    -0.83831   9.41591   0.46902 
 C                     4.96123   7.83934  -2.75335 
 H                     3.88044   6.12594  -2.16947 
 C                     2.04818  -10.0808  -1.21194 
 H                     0.21852  -9.87379  -0.18439 
 C                    -5.58021  -8.29725   3.03947 
 H                    -4.5001   -6.58387   2.45431 
 C                    -6.59808  -7.5269    3.61746 
 C                    -2.6237    11.02078   1.41084 
 C                     5.05825   9.23623  -2.77765 
 C                     2.00219  -11.47883  -1.12888 
 C                    -3.73622   9.00834   2.16182 
 C                    -3.63299   11.79048   1.97809 
 H                    -1.79606   11.49716   0.89625 
 C                     5.97477   7.06917  -3.33913 
 C                     6.1556    9.84212  -3.38213 
 H                     4.29074   9.85507  -2.33126 
 C                     3.11854  -9.46623  -1.87369 
 C                     3.01143  -12.24862  -1.69611 
 H                     1.17308  -11.95526  -0.61671 
 C                    -5.67256  -9.69428   3.07224 
 C                    -7.68952  -8.14395   4.21818 
 H                    -6.52697  -6.44474   3.59236 
 C                    -6.76994  -10.30011   3.67674 
 H                    -4.90113  -10.3133   2.63292 
 C                    -7.78344  -9.53467   4.25235 
 H                    -8.46847  -7.53379   4.6608 
 C                     4.07978  -11.63887  -2.35257 
 H                     2.96135  -13.32895  -1.62299 
 C                     4.12355  -10.24762  -2.43588 
 H                     3.17521  -8.38876  -1.95851 
 C                    -4.69953   11.18076   2.63753 
 H                    -3.5844    12.87072   1.90261 
 C                    -4.74136   9.78965   2.72391 
 H                    -3.79117   7.931     2.24933 
 C                     7.16469   9.07687  -3.96569 
 H                     6.2198    10.92423  -3.39481 
 C                     7.06637   7.68627  -3.93951 
 H                     5.90007   5.98713  -3.32054 
 H                    -5.48625   11.78045   3.07927 
 H                    -5.5634    9.30279   3.23621 
 H                    -8.63386  -10.01563   4.72049 
 H                    -6.83049  -11.38233   3.69603 
 H                     4.86645  -12.23863  -2.79431 
 H                     4.94709  -9.76072  -2.94573 
 H                     8.0152    9.55787  -4.43361 
 H                     7.84193   7.07626  -4.38825 
 
 ITRead=  0  0  0  0  0  0  0  0  0  0  0  0  0  0  0  0  0  0  0  0
 ITRead=  0  0  0  0  0  0  0  0  0  0  0  0  0  0  0  0  0  0  0  0
 ITRead=  0  0  0  0  0  0  0  0  0  0  0  0  0  0  0  0  0  0  0  0
 ITRead=  0  0  0  0  0  0  0  0  0  0  0  0  0  0  0  0  0  0  0  0
 ITRead=  0  0  0  0  0  0  0  0  0  0  0  0  0  0  0  0
 MicOpt= -1 -1 -1 -1 -1 -1 -1 -1 -1 -1 -1 -1 -1 -1 -1 -1 -1 -1 -1 -1
 MicOpt= -1 -1 -1 -1 -1 -1 -1 -1 -1 -1 -1 -1 -1 -1 -1 -1 -1 -1 -1 -1
 MicOpt= -1 -1 -1 -1 -1 -1 -1 -1 -1 -1 -1 -1 -1 -1 -1 -1 -1 -1 -1 -1
 MicOpt= -1 -1 -1 -1 -1 -1 -1 -1 -1 -1 -1 -1 -1 -1 -1 -1 -1 -1 -1 -1
 MicOpt= -1 -1 -1 -1 -1 -1 -1 -1 -1 -1 -1 -1 -1 -1 -1 -1
 NAtoms=     96 NQM=       96 NQMF=       0 NMMI=      0 NMMIF=      0
                NMic=       0 NMicF=      0.
                    Isotopes and Nuclear Properties:
 (Nuclear quadrupole moments (NQMom) in fm**2, nuclear magnetic moments (NMagM)
  in nuclear magnetons)

  Atom         1           2           3           4           5           6           7           8           9          10
 IAtWgt=          12          12          12          12          12          12           1           1           1           1
 AtmWgt=  12.0000000  12.0000000  12.0000000  12.0000000  12.0000000  12.0000000   1.0078250   1.0078250   1.0078250   1.0078250
 NucSpn=           0           0           0           0           0           0           1           1           1           1
 AtZEff=   0.0000000   0.0000000   0.0000000   0.0000000   0.0000000   0.0000000   0.0000000   0.0000000   0.0000000   0.0000000
 NQMom=    0.0000000   0.0000000   0.0000000   0.0000000   0.0000000   0.0000000   0.0000000   0.0000000   0.0000000   0.0000000
 NMagM=    0.0000000   0.0000000   0.0000000   0.0000000   0.0000000   0.0000000   2.7928460   2.7928460   2.7928460   2.7928460
 AtZNuc=   6.0000000   6.0000000   6.0000000   6.0000000   6.0000000   6.0000000   1.0000000   1.0000000   1.0000000   1.0000000

  Atom        11          12          13          14          15          16          17          18          19          20
 IAtWgt=          14          12          12          12          12          12          12          12          14          12
 AtmWgt=  14.0030740  12.0000000  12.0000000  12.0000000  12.0000000  12.0000000  12.0000000  12.0000000  14.0030740  12.0000000
 NucSpn=           2           0           0           0           0           0           0           0           2           0
 AtZEff=   0.0000000   0.0000000   0.0000000   0.0000000   0.0000000   0.0000000   0.0000000   0.0000000   0.0000000   0.0000000
 NQMom=    2.0440000   0.0000000   0.0000000   0.0000000   0.0000000   0.0000000   0.0000000   0.0000000   2.0440000   0.0000000
 NMagM=    0.4037610   0.0000000   0.0000000   0.0000000   0.0000000   0.0000000   0.0000000   0.0000000   0.4037610   0.0000000
 AtZNuc=   7.0000000   6.0000000   6.0000000   6.0000000   6.0000000   6.0000000   6.0000000   6.0000000   7.0000000   6.0000000

  Atom        21          22          23          24          25          26          27          28          29          30
 IAtWgt=          12          12          12          12          12          12          16          16          16          16
 AtmWgt=  12.0000000  12.0000000  12.0000000  12.0000000  12.0000000  12.0000000  15.9949146  15.9949146  15.9949146  15.9949146
 NucSpn=           0           0           0           0           0           0           0           0           0           0
 AtZEff=   0.0000000   0.0000000   0.0000000   0.0000000   0.0000000   0.0000000   0.0000000   0.0000000   0.0000000   0.0000000
 NQMom=    0.0000000   0.0000000   0.0000000   0.0000000   0.0000000   0.0000000   0.0000000   0.0000000   0.0000000   0.0000000
 NMagM=    0.0000000   0.0000000   0.0000000   0.0000000   0.0000000   0.0000000   0.0000000   0.0000000   0.0000000   0.0000000
 AtZNuc=   6.0000000   6.0000000   6.0000000   6.0000000   6.0000000   6.0000000   8.0000000   8.0000000   8.0000000   8.0000000

  Atom        31          32          33          34          35          36          37          38          39          40
 IAtWgt=          16          16          12          12          12          12           1           1           1           1
 AtmWgt=  15.9949146  15.9949146  12.0000000  12.0000000  12.0000000  12.0000000   1.0078250   1.0078250   1.0078250   1.0078250
 NucSpn=           0           0           0           0           0           0           1           1           1           1
 AtZEff=   0.0000000   0.0000000   0.0000000   0.0000000   0.0000000   0.0000000   0.0000000   0.0000000   0.0000000   0.0000000
 NQMom=    0.0000000   0.0000000   0.0000000   0.0000000   0.0000000   0.0000000   0.0000000   0.0000000   0.0000000   0.0000000
 NMagM=    0.0000000   0.0000000   0.0000000   0.0000000   0.0000000   0.0000000   2.7928460   2.7928460   2.7928460   2.7928460
 AtZNuc=   8.0000000   8.0000000   6.0000000   6.0000000   6.0000000   6.0000000   1.0000000   1.0000000   1.0000000   1.0000000

  Atom        41          42          43          44          45          46          47          48          49          50
 IAtWgt=          14           1          14           1          14           1          14           1          12           1
 AtmWgt=  14.0030740   1.0078250  14.0030740   1.0078250  14.0030740   1.0078250  14.0030740   1.0078250  12.0000000   1.0078250
 NucSpn=           2           1           2           1           2           1           2           1           0           1
 AtZEff=   0.0000000   0.0000000   0.0000000   0.0000000   0.0000000   0.0000000   0.0000000   0.0000000   0.0000000   0.0000000
 NQMom=    2.0440000   0.0000000   2.0440000   0.0000000   2.0440000   0.0000000   2.0440000   0.0000000   0.0000000   0.0000000
 NMagM=    0.4037610   2.7928460   0.4037610   2.7928460   0.4037610   2.7928460   0.4037610   2.7928460   0.0000000   2.7928460
 AtZNuc=   7.0000000   1.0000000   7.0000000   1.0000000   7.0000000   1.0000000   7.0000000   1.0000000   6.0000000   1.0000000

  Atom        51          52          53          54          55          56          57          58          59          60
 IAtWgt=          12           1          12           1          12           1          12          12          12          12
 AtmWgt=  12.0000000   1.0078250  12.0000000   1.0078250  12.0000000   1.0078250  12.0000000  12.0000000  12.0000000  12.0000000
 NucSpn=           0           1           0           1           0           1           0           0           0           0
 AtZEff=   0.0000000   0.0000000   0.0000000   0.0000000   0.0000000   0.0000000   0.0000000   0.0000000   0.0000000   0.0000000
 NQMom=    0.0000000   0.0000000   0.0000000   0.0000000   0.0000000   0.0000000   0.0000000   0.0000000   0.0000000   0.0000000
 NMagM=    0.0000000   2.7928460   0.0000000   2.7928460   0.0000000   2.7928460   0.0000000   0.0000000   0.0000000   0.0000000
 AtZNuc=   6.0000000   1.0000000   6.0000000   1.0000000   6.0000000   1.0000000   6.0000000   6.0000000   6.0000000   6.0000000

  Atom        61          62          63          64          65          66          67          68          69          70
 IAtWgt=          12          12           1          12          12           1          12          12           1          12
 AtmWgt=  12.0000000  12.0000000   1.0078250  12.0000000  12.0000000   1.0078250  12.0000000  12.0000000   1.0078250  12.0000000
 NucSpn=           0           0           1           0           0           1           0           0           1           0
 AtZEff=   0.0000000   0.0000000   0.0000000   0.0000000   0.0000000   0.0000000   0.0000000   0.0000000   0.0000000   0.0000000
 NQMom=    0.0000000   0.0000000   0.0000000   0.0000000   0.0000000   0.0000000   0.0000000   0.0000000   0.0000000   0.0000000
 NMagM=    0.0000000   0.0000000   2.7928460   0.0000000   0.0000000   2.7928460   0.0000000   0.0000000   2.7928460   0.0000000
 AtZNuc=   6.0000000   6.0000000   1.0000000   6.0000000   6.0000000   1.0000000   6.0000000   6.0000000   1.0000000   6.0000000

  Atom        71          72          73          74          75          76          77          78          79          80
 IAtWgt=          12           1          12           1          12           1          12           1          12           1
 AtmWgt=  12.0000000   1.0078250  12.0000000   1.0078250  12.0000000   1.0078250  12.0000000   1.0078250  12.0000000   1.0078250
 NucSpn=           0           1           0           1           0           1           0           1           0           1
 AtZEff=   0.0000000   0.0000000   0.0000000   0.0000000   0.0000000   0.0000000   0.0000000   0.0000000   0.0000000   0.0000000
 NQMom=    0.0000000   0.0000000   0.0000000   0.0000000   0.0000000   0.0000000   0.0000000   0.0000000   0.0000000   0.0000000
 NMagM=    0.0000000   2.7928460   0.0000000   2.7928460   0.0000000   2.7928460   0.0000000   2.7928460   0.0000000   2.7928460
 AtZNuc=   6.0000000   1.0000000   6.0000000   1.0000000   6.0000000   1.0000000   6.0000000   1.0000000   6.0000000   1.0000000

  Atom        81          82          83          84          85          86          87          88          89          90
 IAtWgt=          12           1          12           1          12           1          12           1           1           1
 AtmWgt=  12.0000000   1.0078250  12.0000000   1.0078250  12.0000000   1.0078250  12.0000000   1.0078250   1.0078250   1.0078250
 NucSpn=           0           1           0           1           0           1           0           1           1           1
 AtZEff=   0.0000000   0.0000000   0.0000000   0.0000000   0.0000000   0.0000000   0.0000000   0.0000000   0.0000000   0.0000000
 NQMom=    0.0000000   0.0000000   0.0000000   0.0000000   0.0000000   0.0000000   0.0000000   0.0000000   0.0000000   0.0000000
 NMagM=    0.0000000   2.7928460   0.0000000   2.7928460   0.0000000   2.7928460   0.0000000   2.7928460   2.7928460   2.7928460
 AtZNuc=   6.0000000   1.0000000   6.0000000   1.0000000   6.0000000   1.0000000   6.0000000   1.0000000   1.0000000   1.0000000

  Atom        91          92          93          94          95          96
 IAtWgt=           1           1           1           1           1           1
 AtmWgt=   1.0078250   1.0078250   1.0078250   1.0078250   1.0078250   1.0078250
 NucSpn=           1           1           1           1           1           1
 AtZEff=   0.0000000   0.0000000   0.0000000   0.0000000   0.0000000   0.0000000
 NQMom=    0.0000000   0.0000000   0.0000000   0.0000000   0.0000000   0.0000000
 NMagM=    2.7928460   2.7928460   2.7928460   2.7928460   2.7928460   2.7928460
 AtZNuc=   1.0000000   1.0000000   1.0000000   1.0000000   1.0000000   1.0000000
 Leave Link  101 at Thu Oct  5 08:54:17 2023, MaxMem=  9395240960 cpu:               3.9 elap:               0.1
 (Enter /apps/gent/RHEL8/zen3x-ib/software/Gaussian/g16_C.01-iimpi-2020b/g16/l103.exe.bin)

 GradGradGradGradGradGradGradGradGradGradGradGradGradGradGradGradGradGrad
 Berny optimization.
 Initialization pass.
 Trust Radius=3.00D-01 FncErr=1.00D-07 GrdErr=1.00D-07 EigMax=2.50D+02 EigMin=1.00D-04
 Number of steps in this run=      2 maximum allowed number of steps=      2.
 GradGradGradGradGradGradGradGradGradGradGradGradGradGradGradGradGradGrad

 Leave Link  103 at Thu Oct  5 08:54:17 2023, MaxMem=  9395240960 cpu:               0.3 elap:               0.0
 (Enter /apps/gent/RHEL8/zen3x-ib/software/Gaussian/g16_C.01-iimpi-2020b/g16/l202.exe.bin)
 Symmetry turned off by external request.
 Stoichiometry    C48H36N6O6
 Framework group  C1[X(C48H36N6O6)]
 Deg. of freedom   282
 Full point group                 C1      NOp   1
                          Input orientation:                          
 ---------------------------------------------------------------------
 Center     Atomic      Atomic             Coordinates (Angstroms)
 Number     Number       Type             X           Y           Z
 ---------------------------------------------------------------------
      1          6           0       -0.394886   -1.633204    0.186578
      2          6           0       -0.224465    1.175292    0.098912
      3          6           0       -1.465218   -0.844214    0.625513
      4          6           0        0.845867    0.386302   -0.340024
      5          6           0       -1.375313    0.539035    0.582229
      6          6           0        0.755962   -0.996947   -0.296738
      7          1           0        1.594021   -1.596786   -0.634389
      8          1           0       -2.213372    1.138874    0.919881
      9          1           0        1.757102    0.838431   -0.709037
     10          1           0       -2.376457   -1.296342    0.994518
     11          7           0       -0.411824   -3.036472    0.202375
     12          6           0       -1.347520   -3.837840    0.718294
     13          6           0       -1.302209   -5.221345    0.685722
     14          6           0       -2.424447   -5.932920    1.305473
     15          6           0       -2.406035   -7.390987    1.284643
     16          6           0       -1.308768   -8.144896    0.670342
     17          6           0       -0.213797   -7.393099    0.066818
     18          6           0       -0.187689   -5.927932    0.064269
     19          7           0       -0.207532    2.578560    0.083099
     20          6           0        0.728160    3.379924   -0.432836
     21          6           0        0.682811    4.763428   -0.400350
     22          6           0        1.805024    5.474995   -1.020155
     23          6           0        1.786634    6.933061   -0.999302
     24          6           0        0.689253    7.686980   -0.385218
     25          6           0       -0.405704    6.935191    0.218342
     26          6           0       -0.431755    5.470024    0.221012
     27          8           0       -1.383258    4.841816    0.741066
     28          8           0        2.751305    4.848535   -1.550307
     29          8           0        0.691265    8.939418   -0.379389
     30          8           0       -3.370802   -5.306463    1.835497
     31          8           0        0.763830   -5.299720   -0.455750
     32          8           0       -1.310859   -9.397334    0.664348
     33          6           0       -1.476438    7.578263    0.816924
     34          6           0        2.811963    7.673960   -1.563123
     35          6           0       -3.431347   -8.131893    1.848487
     36          6           0        0.856866   -8.036156   -0.531906
     37          1           0        1.585108    2.925440   -0.915561
     38          1           0       -0.987724    3.098816    0.505781
     39          1           0        0.368343   -3.556725   -0.220356
     40          1           0       -2.204450   -3.383364    1.201059
     41          7           0       -1.615763    8.902918    0.903188
     42          1           0       -2.252317    6.952004    1.240469
     43          7           0        3.884934    7.153500   -2.162777
     44          1           0        2.726928    8.752558   -1.508636
     45          7           0        0.996117   -9.360809   -0.618324
     46          1           0        1.632676   -7.409872   -0.955534
     47          7           0       -4.504265   -7.611433    2.448235
     48          1           0       -3.346492   -9.210488    1.793653
     49          6           0       -2.667788    9.622871    1.496928
     50          1           0       -0.838307    9.415908    0.469015
     51          6           0        4.961233    7.839343   -2.753352
     52          1           0        3.880438    6.125943   -2.169468
     53          6           0        2.048179  -10.080805   -1.211943
     54          1           0        0.218524   -9.873788   -0.184385
     55          6           0       -5.580215   -8.297251    3.039472
     56          1           0       -4.500099   -6.583871    2.454310
     57          6           0       -6.598081   -7.526899    3.617461
     58          6           0       -2.623700   11.020778    1.410843
     59          6           0        5.058254    9.236228   -2.777647
     60          6           0        2.002195  -11.478834   -1.128879
     61          6           0       -3.736220    9.008340    2.161819
     62          6           0       -3.632991   11.790477    1.978090
     63          1           0       -1.796061   11.497159    0.896249
     64          6           0        5.974773    7.069174   -3.339130
     65          6           0        6.155603    9.842121   -3.382131
     66          1           0        4.290739    9.855074   -2.331263
     67          6           0        3.118540   -9.466227   -1.873686
     68          6           0        3.011433  -12.248616   -1.696107
     69          1           0        1.173075  -11.955258   -0.616714
     70          6           0       -5.672563   -9.694279    3.072240
     71          6           0       -7.689517   -8.143948    4.218181
     72          1           0       -6.526972   -6.444743    3.592355
     73          6           0       -6.769937  -10.300112    3.676741
     74          1           0       -4.901125  -10.313301    2.632921
     75          6           0       -7.783438   -9.534672    4.252349
     76          1           0       -8.468474   -7.533791    4.660799
     77          6           0        4.079783  -11.638866   -2.352571
     78          1           0        2.961346  -13.328949   -1.622991
     79          6           0        4.123546  -10.247625   -2.435883
     80          1           0        3.175210   -8.388762   -1.958509
     81          6           0       -4.699527   11.180758    2.637528
     82          1           0       -3.584399   12.870716    1.902610
     83          6           0       -4.741359    9.789645    2.723910
     84          1           0       -3.791167    7.930998    2.249328
     85          6           0        7.164686    9.076867   -3.965694
     86          1           0        6.219804   10.924226   -3.394809
     87          6           0        7.066368    7.686273   -3.939511
     88          1           0        5.900066    5.987128   -3.320542
     89          1           0       -5.486247   11.780455    3.079266
     90          1           0       -5.563398    9.302787    3.236209
     91          1           0       -8.633858  -10.015634    4.720485
     92          1           0       -6.830489  -11.382330    3.696028
     93          1           0        4.866452  -12.238625   -2.794314
     94          1           0        4.947086   -9.760724   -2.945725
     95          1           0        8.015205    9.557868   -4.433611
     96          1           0        7.841931    7.076262   -4.388248
 ---------------------------------------------------------------------
 Rotational constants (GHZ):           0.0425495           0.0102973           0.0082913
 Leave Link  202 at Thu Oct  5 08:54:17 2023, MaxMem=  9395240960 cpu:               0.2 elap:               0.0
 (Enter /apps/gent/RHEL8/zen3x-ib/software/Gaussian/g16_C.01-iimpi-2020b/g16/l301.exe.bin)
 Standard basis: 6-311++G(d,p) (5D, 7F)
 Ernie: Thresh=  0.10000D-02 Tol=  0.10000D-05 Strict=F.
  1572 basis functions,  2484 primitive gaussians,  1632 cartesian basis functions
   207 alpha electrons      207 beta electrons
       nuclear repulsion energy      6713.2835506768 Hartrees.
 IExCor=  402 DFT=T Ex+Corr=B3LYP ExCW=0 ScaHFX=  0.200000
 ScaDFX=  0.800000  0.720000  1.000000  0.810000 ScalE2=  1.000000  1.000000
 IRadAn=      5 IRanWt=     -1 IRanGd=            0 ICorTp=0 IEmpDi=131
 NAtoms=   96 NActive=   96 NUniq=   96 SFac= 1.00D+00 NAtFMM=   60 NAOKFM=T Big=T
 Integral buffers will be    131072 words long.
 Raffenetti 2 integral format.
 Two-electron integral symmetry is turned off.
 R6Disp:  Grimme-D3 Dispersion energy=       -0.0938226069 Hartrees.
 Nuclear repulsion after empirical dispersion term =     6713.1897280700 Hartrees.
 Leave Link  301 at Thu Oct  5 08:54:17 2023, MaxMem=  9395240960 cpu:               1.0 elap:               0.0
 (Enter /apps/gent/RHEL8/zen3x-ib/software/Gaussian/g16_C.01-iimpi-2020b/g16/l302.exe.bin)
 NPDir=0 NMtPBC=     1 NCelOv=     1 NCel=       1 NClECP=     1 NCelD=      1
         NCelK=      1 NCelE2=     1 NClLst=     1 CellRange=     0.0.
 One-electron integrals computed using PRISM.
 NBasis=  1572 RedAO= T EigKep=  1.23D-06  NBF=  1572
 NBsUse=  1548 1.00D-06 EigRej=  8.37D-07 NBFU=  1548
 Precomputing XC quadrature grid using
 IXCGrd= 4 IRadAn=           5 IRanWt=          -1 IRanGd=           0 AccXCQ= 0.00D+00.
 Generated NRdTot=       0 NPtTot=           0 NUsed=           0 NTot=          32
 NSgBfM=  1314  1292  1300  1304  1314 MxSgAt=    96 MxSgA2=    96.
 Leave Link  302 at Thu Oct  5 08:54:19 2023, MaxMem=  9395240960 cpu:              57.5 elap:               2.1
 (Enter /apps/gent/RHEL8/zen3x-ib/software/Gaussian/g16_C.01-iimpi-2020b/g16/l303.exe.bin)
 DipDrv:  MaxL=1.
 Leave Link  303 at Thu Oct  5 08:54:19 2023, MaxMem=  9395240960 cpu:               9.8 elap:               0.2
 (Enter /apps/gent/RHEL8/zen3x-ib/software/Gaussian/g16_C.01-iimpi-2020b/g16/l401.exe.bin)
 ExpMin= 3.60D-02 ExpMax= 8.59D+03 ExpMxC= 1.30D+03 IAcc=3 IRadAn=         5 AccDes= 0.00D+00
 Harris functional with IExCor=  402 and IRadAn=       5 diagonalized for initial guess.
 HarFok:  IExCor=  402 AccDes= 0.00D+00 IRadAn=         5 IDoV= 1 UseB2=F ITyADJ=14
 ICtDFT=  3500011 ScaDFX=  1.000000  1.000000  1.000000  1.000000
 FoFCou: FMM=F IPFlag=           0 FMFlag=      100000 FMFlg1=        2001
         NFxFlg=           0 DoJE=T BraDBF=F KetDBF=T FulRan=T
         wScrn=  0.000000 ICntrl=       500 IOpCl=  0 I1Cent=   200000004 NGrid=           0
         NMat0=    1 NMatS0=      1 NMatT0=    0 NMatD0=    1 NMtDS0=    0 NMtDT0=    0
 Symmetry not used in FoFCou.
 Harris En= -2631.55491173629    
 JPrj=0 DoOrth=F DoCkMO=F.
 Leave Link  401 at Thu Oct  5 08:54:23 2023, MaxMem=  9395240960 cpu:             160.9 elap:               3.1
 (Enter /apps/gent/RHEL8/zen3x-ib/software/Gaussian/g16_C.01-iimpi-2020b/g16/l508.exe.bin)
 Two-electron integral symmetry not used.
 Tight linear equation convergence will be used.
 RB3LYP wavefunction.
 Linear searches until partial convergence.
 Full line searches.
 Fock matrices will be formed incrementally for  20 cycles.
 FoFJK:  IHMeth= 1 ICntrl=       0 DoSepK=F KAlg= 0 I1Cent=           0 FoldK=F
 IRaf= 530000000 NMat=       1 IRICut=       1 DoRegI=T DoRafI=F ISym2E= 0 IDoP0=0 IntGTp=1.
 FoFCou: FMM=T IPFlag=           0 FMFlag=      100000 FMFlg1=        2001
         NFxFlg=           0 DoJE=F BraDBF=F KetDBF=F FulRan=T
         wScrn=  0.000000 ICntrl=         0 IOpCl=  0 I1Cent=           0 NGrid=           0
         NMat0=    1 NMatS0=      1 NMatT0=    0 NMatD0=    1 NMtDS0=    0 NMtDT0=    0
 Symmetry not used in FoFCou.
 FMM levels:  10  Number of levels for PrismC:   9
 Iteration   1 EE= -2630.17464457367                                    Grad=1.810D+00 Max rot=    3.6699 deg.
 Gradient too large for Newton-Raphson -- use scaled steepest descent instead.
 Alpha Gap=     0.100 HL deriv= 5.07D-07
     ILin= 1 X=0.000D+00 Y=-2.630174644574D+03 DE= 0.00D+00 F= -6.70D+00
 RMSU=  3.97D-03    CP:  1.01D+00
     ILin= 2 X=3.000D-01 Y=-2.631359004468D+03 DE=-1.18D+00 F= -1.13D+00 OKLS=F
 RMSU=  1.89D-04    CP:  1.02D+00  1.36D+00
     ILin= 3 X=4.000D-01 Y=-2.631376717058D+03 DE=-1.20D+00 F=  7.83D-01
     Accept linear search using points  2 and  3.
     An  expanding polynomial of degree  3 produced  0.3468
 RMSU=  1.87D-07    CP:  1.01D+00  1.17D+00  4.06D-01
 Iteration   2 EE= -2631.39115950732     Delta-E=       -1.216514933651 Grad=6.144D-01 Max rot=    1.0841 deg.
 Gradient too large for Newton-Raphson -- use scaled steepest descent instead.
 Alpha Gap=     0.118 HL deriv= 1.09D-06
     ILin= 1 X=0.000D+00 Y=-2.631391159507D+03 DE= 0.00D+00 F= -5.45D-01
 RMSU=  9.77D-04    CP:  9.93D-01  1.02D+00  9.00D-04 -3.00D+00
     ILin= 2 X=3.000D-01 Y=-2.631495793799D+03 DE=-1.05D-01 F= -1.54D-01 OKLS=F
 RMSU=  5.72D-05    CP:  9.84D-01  9.38D-01 -1.46D-01 -3.00D+00  1.67D+00
     ILin= 3 X=5.000D-01 Y=-2.631500852117D+03 DE=-1.10D-01 F=  1.03D-01
     Accept linear search using points  2 and  3.
     An  expanding polynomial of degree  3 produced  0.3959
 RMSU=  5.77D-08    CP:  9.88D-01  9.82D-01 -8.17D-02 -3.00D+00  1.32D+00
                    CP:  3.80D-01
 Iteration   3 EE= -2631.50463261606     Delta-E=       -0.113473108740 Grad=2.880D-01 Max rot=    0.6313 deg.
 Gradient too large for Newton-Raphson -- use scaled steepest descent instead.
 Alpha Gap=     0.122 HL deriv= 6.94D-06
     ILin= 1 X=0.000D+00 Y=-2.631504632616D+03 DE= 0.00D+00 F= -9.29D-02
 RMSU=  5.72D-04    CP:  9.89D-01  1.05D+00  4.93D-01 -3.00D+00  1.67D+00
                    CP:  7.52D-01 -3.00D+00
     ILin= 2 X=4.000D-01 Y=-2.631525561614D+03 DE=-2.09D-02 F= -1.17D-02 OKLS=F
 RMSU=  3.80D-05    CP:  9.92D-01  1.11D+00  1.03D+00 -3.00D+00  1.94D+00
                    CP:  1.20D+00 -3.00D+00  1.74D+00
     ILin= 3 X=7.000D-01 Y=-2.631519897906D+03 DE=-1.53D-02 F=  4.95D-02
     An  expanding polynomial of degree  3 produced  0.4572
 RMSU=  1.38D-08    CP:  9.90D-01  1.06D+00  5.88D-01 -3.00D+00  1.72D+00
                    CP:  8.26D-01 -3.00D+00  1.14D+00  1.25D-01
 Iteration   4 EE= -2631.52589765085     Delta-E=       -0.021265034791 Grad=1.498D-01 Max rot=    0.3375 deg.
 Gradient too large for Newton-Raphson -- use scaled steepest descent instead.
 Alpha Gap=     0.121 HL deriv= 4.19D-06
     ILin= 1 X=0.000D+00 Y=-2.631525897651D+03 DE= 0.00D+00 F= -2.58D-02
 RMSU=  1.35D-04    CP:  9.77D-01  1.00D+00  3.01D-01 -3.00D+00  2.03D+00
                    CP:  1.98D+00 -3.00D+00  1.26D+00  7.65D-01 -3.00D+00
     ILin= 2 X=4.000D-01 Y=-2.631530996828D+03 DE=-5.10D-03 F=  2.97D-04 OKLS=F
 RMSU=  4.22D-05    CP:  9.62D-01  9.32D-01  1.51D-03 -3.00D+00  2.41D+00
                    CP:  3.00D+00 -3.00D+00  1.40D+00  1.63D+00 -3.00D+00
                    CP:  2.24D+00
     ILin= 3 X=9.000D-01 Y=-2.631522744863D+03 DE= 3.15D-03 F=  3.27D-02
     An  expanding polynomial of degree  3 produced  0.3961
     Minimum is close to point  2 DX= -3.89D-03 DF= -4.92D-07 DXR=  9.82D-03 DFR=  9.65D-05 which will be used.
 Iteration   5 EE= -2631.53099682805     Delta-E=       -0.005099177204 Grad=7.931D-02 Max rot=    0.2151 deg.
 Gradient too large for Newton-Raphson -- use scaled steepest descent instead.
 Alpha Gap=     0.122 HL deriv= 6.67D-07
     ILin= 1 X=0.000D+00 Y=-2.631530996828D+03 DE= 0.00D+00 F= -6.13D-03
 RMSU=  4.92D-05    CP:  9.71D-01  1.02D+00  3.31D-01 -3.00D+00  2.12D+00
                    CP:  2.38D+00 -3.00D+00  1.53D+00  1.57D+00 -3.00D+00
                    CP:  1.51D+00 -2.30D-02
     ILin= 2 X=4.000D-01 Y=-2.631532364149D+03 DE=-1.37D-03 F= -7.04D-04 OKLS=F
 RMSU=  2.86D-06    CP:  9.65D-01  1.03D+00  3.91D-01 -3.00D+00  2.24D+00
                    CP:  2.93D+00 -3.00D+00  1.87D+00  2.79D+00 -3.00D+00
                    CP:  2.15D+00 -4.39D-02  2.25D+00
     ILin= 3 X=9.000D-01 Y=-2.631531015610D+03 DE=-1.88D-05 F=  6.10D-03
     An  expanding polynomial of degree  3 produced  0.4515
 RMSU=  1.87D-10    CP:  9.70D-01  1.02D+00  3.37D-01 -3.00D+00  2.14D+00
                    CP:  2.44D+00 -3.00D+00  1.57D+00  1.68D+00 -3.00D+00
                    CP:  1.58D+00 -2.56D-02  1.13D+00  5.17D-02
 Iteration   6 EE= -2631.53238239409     Delta-E=       -0.001385566038 Grad=4.398D-02 Max rot=    0.1175 deg.
 Gradient too large for Newton-Raphson -- use scaled steepest descent instead.
 Alpha Gap=     0.122 HL deriv= 1.79D-06
     ILin= 1 X=0.000D+00 Y=-2.631532382394D+03 DE= 0.00D+00 F= -2.03D-03
 RMSU=  2.05D-05    CP:  9.64D-01  9.96D-01  2.05D-01 -3.00D+00  2.22D+00
                    CP:  2.90D+00 -3.00D+00  1.58D+00  1.95D+00 -3.00D+00
                    CP:  2.08D+00 -2.08D-02  1.43D+00  1.29D+00 -3.00D+00
     ILin= 2 X=4.000D-01 Y=-2.631532797608D+03 DE=-4.15D-04 F= -4.53D-05 OKLS=F
 RMSU=  3.63D-06    CP:  9.58D-01  9.75D-01  7.98D-02 -3.00D+00  2.31D+00
                    CP:  3.00D+00 -3.00D+00  1.60D+00  2.22D+00 -3.00D+00
                    CP:  2.59D+00  4.83D-01  1.73D+00  1.91D+00 -3.00D+00
                    CP:  1.99D+00
     ILin= 3 X=8.000D-01 Y=-2.631532419215D+03 DE=-3.68D-05 F=  1.94D-03
     An  expanding polynomial of degree  3 produced  0.4093
     Minimum is close to point  2 DX=  9.28D-03 DF= -2.14D-07 DXR=  2.27D-02 DFR=  5.14D-04 which will be used.
 Iteration   7 EE= -2631.53279760825     Delta-E=       -0.000415214163 Grad=2.468D-02 Max rot=    0.0700 deg.
 Gradient too large for Newton-Raphson -- use scaled steepest descent instead.
 Alpha Gap=     0.122 HL deriv= 3.78D-08
     ILin= 1 X=0.000D+00 Y=-2.631532797608D+03 DE= 0.00D+00 F= -5.66D-04
 RMSU=  5.66D-06    CP:  9.61D-01  9.95D-01  1.82D-01 -3.00D+00  2.25D+00
                    CP:  3.00D+00 -3.00D+00  1.66D+00  2.33D+00 -3.00D+00
                    CP:  2.35D+00  6.26D-02  2.06D+00  2.20D+00 -3.00D+00
                    CP:  1.31D+00  5.19D-01
     ILin= 2 X=4.000D-01 Y=-2.631532929230D+03 DE=-1.32D-04 F= -9.23D-05 OKLS=F
 RMSU=  6.92D-07    CP:  9.56D-01  9.95D-01  1.57D-01 -3.00D+00  2.29D+00
                    CP:  3.00D+00 -3.00D+00  1.74D+00  2.83D+00 -3.00D+00
                    CP:  2.67D+00  3.45D-01  2.85D+00  3.00D+00 -3.00D+00
                    CP:  1.69D+00  1.59D+00  2.25D+00
     ILin= 3 X=9.000D-01 Y=-2.631532827268D+03 DE=-2.97D-05 F=  5.00D-04
     An  expanding polynomial of degree  3 produced  0.4778
 RMSU=  2.18D-08    CP:  9.60D-01  9.95D-01  1.78D-01 -3.00D+00  2.26D+00
                    CP:  3.00D+00 -3.00D+00  1.67D+00  2.41D+00 -3.00D+00
                    CP:  2.40D+00  1.06D-01  2.18D+00  2.35D+00 -3.00D+00
                    CP:  1.37D+00  6.85D-01  1.19D+00  5.93D-03
 Iteration   8 EE= -2631.53293282595     Delta-E=       -0.000135217699 Grad=1.379D-02 Max rot=    0.0374 deg.
 Gradient too large for Newton-Raphson -- use scaled steepest descent instead.
 Alpha Gap=     0.122 HL deriv= 9.09D-07
     ILin= 1 X=0.000D+00 Y=-2.631532932826D+03 DE= 0.00D+00 F= -2.32D-04
 Restarting incremental Fock formation.
     ILin= 2 X=4.000D-01 Y=-2.631532978514D+03 DE=-4.57D-05 F=  3.59D-06 OKLS=F
 RMSU=  6.68D-05    CP:  9.96D-01
     ILin= 3 X=9.000D-01 Y=-2.631532903127D+03 DE= 2.97D-05 F=  2.98D-04
     An  expanding polynomial of degree  3 produced  0.3940
     Minimum is close to point  2 DX= -6.04D-03 DF= -1.07D-08 DXR=  1.53D-02 DFR=  2.35D-04 which will be used.
 Iteration   9 EE= -2631.53297851407     Delta-E=       -0.000045688117 Grad=7.932D-03 Max rot=    0.0212 deg.
 SCF Done:  E(RB3LYP) =  -2631.53297851     a.u. after    9 cycles
            Convg  =    0.7932D-02                    22 Fock formations.
              S**2 =  0.0000                  -V/T =  2.0042
 Leave Link  508 at Thu Oct  5 08:58:53 2023, MaxMem=  9395240960 cpu:           17166.9 elap:             270.4
 (Enter /apps/gent/RHEL8/zen3x-ib/software/Gaussian/g16_C.01-iimpi-2020b/g16/l502.exe.bin)
 Two-electron integral symmetry not used.
 Closed shell SCF:
 Using DIIS extrapolation, IDIIS=  1040.
 NGot=  9395240960 LenX=  9389796346 LenY=  9387131290
 Requested convergence on RMS density matrix=1.00D-08 within  32 cycles.
 Requested convergence on MAX density matrix=1.00D-06.
 Requested convergence on             energy=1.00D-06.
 No special actions if energy rises.
 Fock matrices will be formed incrementally for  20 cycles.

 Cycle   1  Pass 1  IDiag  1:
 FoFJK:  IHMeth= 1 ICntrl=       0 DoSepK=F KAlg= 0 I1Cent=           0 FoldK=F
 IRaf= 530000000 NMat=       1 IRICut=       1 DoRegI=T DoRafI=F ISym2E= 0 IDoP0=0 IntGTp=1.
 FoFCou: FMM=T IPFlag=           0 FMFlag=      100000 FMFlg1=        2001
         NFxFlg=           0 DoJE=F BraDBF=F KetDBF=F FulRan=T
         wScrn=  0.000000 ICntrl=         0 IOpCl=  0 I1Cent=           0 NGrid=           0
         NMat0=    1 NMatS0=      1 NMatT0=    0 NMatD0=    1 NMtDS0=    0 NMtDT0=    0
 Symmetry not used in FoFCou.
 FMM levels:  10  Number of levels for PrismC:   9
 E= -2631.53297851406    
 DIIS: error= 1.23D-04 at cycle   1 NSaved=   1.
 NSaved= 1 IEnMin= 1 EnMin= -2631.53297851406     IErMin= 1 ErrMin= 1.23D-04
 ErrMax= 1.23D-04  0.00D+00 EMaxC= 1.00D-01 BMatC= 3.15D-05 BMatP= 3.15D-05
 IDIUse=3 WtCom= 9.99D-01 WtEn= 1.23D-03
 Coeff-Com:  0.100D+01
 Coeff-En:   0.100D+01
 Coeff:      0.100D+01
 Gap=     0.122 Goal=   None    Shift=    0.000
 RMSDP=1.35D-04 MaxDP=3.66D-02              OVMax= 1.84D-03

 Cycle   2  Pass 1  IDiag  1:
 RMSU=  7.92D-05    CP:  9.96D-01
 E= -2631.53297713253     Delta-E=        0.000001381535 Rises=F Damp=F
 DIIS: error= 2.31D-04 at cycle   2 NSaved=   2.
 NSaved= 2 IEnMin= 1 EnMin= -2631.53297851406     IErMin= 1 ErrMin= 1.23D-04
 ErrMax= 2.31D-04  0.00D+00 EMaxC= 1.00D-01 BMatC= 3.48D-05 BMatP= 3.15D-05
 IDIUse=3 WtCom= 3.97D-01 WtEn= 6.03D-01
 Coeff-Com:  0.518D+00 0.482D+00
 Coeff-En:   0.519D+00 0.481D+00
 Coeff:      0.519D+00 0.481D+00
 Gap=     0.114 Goal=   None    Shift=    0.000
 RMSDP=3.58D-05 MaxDP=7.79D-03 DE= 1.38D-06 OVMax= 1.21D-03

 Cycle   3  Pass 1  IDiag  1:
 RMSU=  3.15D-05    CP:  9.95D-01  9.48D-01
 E= -2631.53299202814     Delta-E=       -0.000014895617 Rises=F Damp=F
 DIIS: error= 1.61D-04 at cycle   3 NSaved=   3.
 NSaved= 3 IEnMin= 3 EnMin= -2631.53299202814     IErMin= 1 ErrMin= 1.23D-04
 ErrMax= 1.61D-04  0.00D+00 EMaxC= 1.00D-01 BMatC= 1.61D-05 BMatP= 3.15D-05
 IDIUse=3 WtCom= 9.98D-01 WtEn= 1.61D-03
 Coeff-Com: -0.114D-01 0.406D+00 0.605D+00
 Coeff-En:   0.000D+00 0.364D+00 0.636D+00
 Coeff:     -0.113D-01 0.406D+00 0.605D+00
 Gap=     0.114 Goal=   None    Shift=    0.000
 RMSDP=1.30D-05 MaxDP=1.40D-03 DE=-1.49D-05 OVMax= 5.14D-04

 Cycle   4  Pass 1  IDiag  1:
 RMSU=  5.95D-06    CP:  9.95D-01  1.02D+00  6.92D-01
 E= -2631.53300469282     Delta-E=       -0.000012664677 Rises=F Damp=F
 DIIS: error= 2.04D-05 at cycle   4 NSaved=   4.
 NSaved= 4 IEnMin= 4 EnMin= -2631.53300469282     IErMin= 4 ErrMin= 2.04D-05
 ErrMax= 2.04D-05  0.00D+00 EMaxC= 1.00D-01 BMatC= 1.13D-07 BMatP= 1.61D-05
 IDIUse=1 WtCom= 1.00D+00 WtEn= 0.00D+00
 Coeff-Com: -0.673D-02 0.214D+00 0.320D+00 0.472D+00
 Coeff:     -0.673D-02 0.214D+00 0.320D+00 0.472D+00
 Gap=     0.114 Goal=   None    Shift=    0.000
 RMSDP=1.80D-06 MaxDP=1.65D-04 DE=-1.27D-05 OVMax= 1.38D-04

 Cycle   5  Pass 1  IDiag  1:
 RMSU=  1.13D-06    CP:  9.95D-01  1.01D+00  7.04D-01  8.28D-01
 E= -2631.53300477856     Delta-E=       -0.000000085740 Rises=F Damp=F
 DIIS: error= 9.35D-06 at cycle   5 NSaved=   5.
 NSaved= 5 IEnMin= 5 EnMin= -2631.53300477856     IErMin= 5 ErrMin= 9.35D-06
 ErrMax= 9.35D-06  0.00D+00 EMaxC= 1.00D-01 BMatC= 4.17D-08 BMatP= 1.13D-07
 IDIUse=1 WtCom= 1.00D+00 WtEn= 0.00D+00
 Coeff-Com: -0.208D-02-0.257D-02-0.624D-02 0.375D+00 0.636D+00
 Coeff:     -0.208D-02-0.257D-02-0.624D-02 0.375D+00 0.636D+00
 Gap=     0.114 Goal=   None    Shift=    0.000
 RMSDP=8.18D-07 MaxDP=7.01D-05 DE=-8.57D-08 OVMax= 3.16D-05

 Cycle   6  Pass 1  IDiag  1:
 RMSU=  3.14D-07    CP:  9.95D-01  1.01D+00  6.99D-01  9.26D-01  8.25D-01
 E= -2631.53300481957     Delta-E=       -0.000000041009 Rises=F Damp=F
 DIIS: error= 9.02D-07 at cycle   6 NSaved=   6.
 NSaved= 6 IEnMin= 6 EnMin= -2631.53300481957     IErMin= 6 ErrMin= 9.02D-07
 ErrMax= 9.02D-07  0.00D+00 EMaxC= 1.00D-01 BMatC= 6.40D-10 BMatP= 4.17D-08
 IDIUse=1 WtCom= 1.00D+00 WtEn= 0.00D+00
 Coeff-Com: -0.376D-03-0.100D-01-0.152D-01 0.130D+00 0.181D+00 0.714D+00
 Coeff:     -0.376D-03-0.100D-01-0.152D-01 0.130D+00 0.181D+00 0.714D+00
 Gap=     0.114 Goal=   None    Shift=    0.000
 RMSDP=2.34D-07 MaxDP=2.90D-05 DE=-4.10D-08 OVMax= 7.11D-06

 Cycle   7  Pass 1  IDiag  1:
 RMSU=  1.13D-07    CP:  9.95D-01  1.01D+00  7.00D-01  9.54D-01  7.80D-01
                    CP:  9.08D-01
 E= -2631.53300482108     Delta-E=       -0.000000001512 Rises=F Damp=F
 DIIS: error= 5.61D-07 at cycle   7 NSaved=   7.
 NSaved= 7 IEnMin= 7 EnMin= -2631.53300482108     IErMin= 7 ErrMin= 5.61D-07
 ErrMax= 5.61D-07  0.00D+00 EMaxC= 1.00D-01 BMatC= 1.88D-10 BMatP= 6.40D-10
 IDIUse=1 WtCom= 1.00D+00 WtEn= 0.00D+00
 Coeff-Com:  0.563D-04-0.598D-02-0.833D-02 0.331D-01 0.183D-01 0.403D+00
 Coeff-Com:  0.560D+00
 Coeff:      0.563D-04-0.598D-02-0.833D-02 0.331D-01 0.183D-01 0.403D+00
 Coeff:      0.560D+00
 Gap=     0.114 Goal=   None    Shift=    0.000
 RMSDP=7.88D-08 MaxDP=1.16D-05 DE=-1.51D-09 OVMax= 4.58D-06

 Cycle   8  Pass 1  IDiag  1:
 RMSU=  3.15D-08    CP:  9.95D-01  1.01D+00  7.00D-01  9.56D-01  7.90D-01
                    CP:  9.69D-01  5.67D-01
 E= -2631.53300482212     Delta-E=       -0.000000001040 Rises=F Damp=F
 DIIS: error= 1.75D-07 at cycle   8 NSaved=   8.
 NSaved= 8 IEnMin= 8 EnMin= -2631.53300482212     IErMin= 8 ErrMin= 1.75D-07
 ErrMax= 1.75D-07  0.00D+00 EMaxC= 1.00D-01 BMatC= 2.11D-11 BMatP= 1.88D-10
 IDIUse=1 WtCom= 1.00D+00 WtEn= 0.00D+00
 Coeff-Com:  0.691D-04-0.268D-02-0.357D-02 0.834D-02-0.789D-02 0.174D+00
 Coeff-Com:  0.334D+00 0.498D+00
 Coeff:      0.691D-04-0.268D-02-0.357D-02 0.834D-02-0.789D-02 0.174D+00
 Coeff:      0.334D+00 0.498D+00
 Gap=     0.114 Goal=   None    Shift=    0.000
 RMSDP=3.00D-08 MaxDP=4.43D-06 DE=-1.04D-09 OVMax= 1.36D-06

 Cycle   9  Pass 1  IDiag  1:
 RMSU=  1.02D-08    CP:  9.95D-01  1.01D+00  7.00D-01  9.58D-01  7.87D-01
                    CP:  9.51D-01  6.82D-01  7.31D-01
 E= -2631.53300482037     Delta-E=        0.000000001757 Rises=F Damp=F
 DIIS: error= 5.85D-08 at cycle   9 NSaved=   9.
 NSaved= 9 IEnMin= 8 EnMin= -2631.53300482212     IErMin= 9 ErrMin= 5.85D-08
 ErrMax= 5.85D-08  0.00D+00 EMaxC= 1.00D-01 BMatC= 2.00D-12 BMatP= 2.11D-11
 IDIUse=1 WtCom= 1.00D+00 WtEn= 0.00D+00
 Coeff-Com:  0.294D-04-0.514D-03-0.634D-03 0.244D-03-0.592D-02 0.263D-01
 Coeff-Com:  0.870D-01 0.271D+00 0.623D+00
 Coeff:      0.294D-04-0.514D-03-0.634D-03 0.244D-03-0.592D-02 0.263D-01
 Coeff:      0.870D-01 0.271D+00 0.623D+00
 Gap=     0.114 Goal=   None    Shift=    0.000
 RMSDP=6.85D-09 MaxDP=1.75D-06 DE= 1.76D-09 OVMax= 3.79D-07

 Cycle  10  Pass 1  IDiag  1:
 RMSU=  3.99D-09    CP:  9.95D-01  1.01D+00  7.00D-01  9.58D-01  7.85D-01
                    CP:  9.54D-01  6.82D-01  7.74D-01  7.95D-01
 E= -2631.53300482140     Delta-E=       -0.000000001030 Rises=F Damp=F
 DIIS: error= 1.82D-08 at cycle  10 NSaved=  10.
 NSaved=10 IEnMin= 8 EnMin= -2631.53300482212     IErMin=10 ErrMin= 1.82D-08
 ErrMax= 1.82D-08  0.00D+00 EMaxC= 1.00D-01 BMatC= 2.77D-13 BMatP= 2.00D-12
 IDIUse=1 WtCom= 1.00D+00 WtEn= 0.00D+00
 Coeff-Com:  0.121D-04-0.979D-04-0.112D-03-0.674D-03-0.292D-02 0.116D-02
 Coeff-Com:  0.235D-01 0.115D+00 0.362D+00 0.502D+00
 Coeff:      0.121D-04-0.979D-04-0.112D-03-0.674D-03-0.292D-02 0.116D-02
 Coeff:      0.235D-01 0.115D+00 0.362D+00 0.502D+00
 Gap=     0.114 Goal=   None    Shift=    0.000
 RMSDP=2.92D-09 MaxDP=3.70D-07 DE=-1.03D-09 OVMax= 9.42D-08

 SCF Done:  E(RB3LYP) =  -2631.53300482     A.U. after   10 cycles
            NFock= 10  Conv=0.29D-08     -V/T= 2.0042
 KE= 2.620471457957D+03 PE=-1.955609486117D+04 EE= 7.590900670320D+03
 Leave Link  502 at Thu Oct  5 09:00:54 2023, MaxMem=  9395240960 cpu:            7305.1 elap:             120.9
 (Enter /apps/gent/RHEL8/zen3x-ib/software/Gaussian/g16_C.01-iimpi-2020b/g16/l508.exe.bin)
 QCSCF skips out because SCF is already converged.
 Leave Link  508 at Thu Oct  5 09:00:54 2023, MaxMem=  9395240960 cpu:               0.0 elap:               0.0
 (Enter /apps/gent/RHEL8/zen3x-ib/software/Gaussian/g16_C.01-iimpi-2020b/g16/l801.exe.bin)
 DoSCS=F DFT=T ScalE2(SS,OS)=  1.000000  1.000000
 Range of M.O.s used for correlation:     1  1548
 NBasis=  1572 NAE=   207 NBE=   207 NFC=     0 NFV=     0
 NROrb=   1548 NOA=   207 NOB=   207 NVA=  1341 NVB=  1341

 **** Warning!!: The largest alpha MO coefficient is  0.10499727D+03

 Leave Link  801 at Thu Oct  5 09:00:54 2023, MaxMem=  9395240960 cpu:               1.1 elap:               0.0
 (Enter /apps/gent/RHEL8/zen3x-ib/software/Gaussian/g16_C.01-iimpi-2020b/g16/l1101.exe.bin)
 Using compressed storage, NAtomX=    96.
 Will process     97 centers per pass.
 PrsmSu:  requested number of processors reduced to:  23 ShMem   1 Linda.
 R6Disp: Adding Grimme-D3 dispersion energy 1st derivatives to the gradient.
 Leave Link 1101 at Thu Oct  5 09:01:03 2023, MaxMem=  9395240960 cpu:             258.7 elap:               8.4
 (Enter /apps/gent/RHEL8/zen3x-ib/software/Gaussian/g16_C.01-iimpi-2020b/g16/l1102.exe.bin)
 Symmetrizing basis deriv contribution to polar:
 IMax=3 JMax=2 DiffMx= 0.00D+00
 Leave Link 1102 at Thu Oct  5 09:01:04 2023, MaxMem=  9395240960 cpu:              14.7 elap:               0.3
 (Enter /apps/gent/RHEL8/zen3x-ib/software/Gaussian/g16_C.01-iimpi-2020b/g16/l1110.exe.bin)
 Forming Gx(P) for the SCF density, NAtomX=    96.
 Integral derivatives from FoFJK, PRISM(SPDF).
 Do as many integral derivatives as possible in FoFJK.
 G2DrvN: MDV=    9395231128.
 G2DrvN: will do    33 centers at a time, making    3 passes.
 G2DrvN:  IPasSy=1 do centers    0 through   32.
 Calling FoFCou, ICntrl=  3107 FMM=T I1Cent=   0 AccDes= 0.00D+00.
 FoFJK:  IHMeth= 1 ICntrl=    3107 DoSepK=F KAlg= 0 I1Cent=           0 FoldK=F
 IRaf=         0 NMat=       1 IRICut=       1 DoRegI=T DoRafI=F ISym2E= 0 IDoP0=0 IntGTp=1.
 FoFCou: FMM=T IPFlag=           0 FMFlag=      100000 FMFlg1=        2001
         NFxFlg=           0 DoJE=F BraDBF=F KetDBF=F FulRan=T
         wScrn=  0.000000 ICntrl=      3107 IOpCl=  0 I1Cent=           0 NGrid=           0
         NMat0=    1 NMatS0=      1 NMatT0=    0 NMatD0=    1 NMtDS0=    0 NMtDT0=    0
 Symmetry not used in FoFCou.
 FMM levels:  10  Number of levels for PrismC:   9
 G2DrvN:  IPasSy=1 do centers   33 through   65.
 Calling FoFCou, ICntrl=  3107 FMM=T I1Cent=   0 AccDes= 0.00D+00.
 G2DrvN:  IPasSy=1 do centers   66 through   96.
 Calling FoFCou, ICntrl=  3107 FMM=T I1Cent=   0 AccDes= 0.00D+00.
 End of G2Drv F.D. properties file   721 does not exist.
 End of G2Drv F.D. properties file   722 does not exist.
 End of G2Drv F.D. properties file   788 does not exist.
 Leave Link 1110 at Thu Oct  5 09:11:01 2023, MaxMem=  9395240960 cpu:           37622.8 elap:             596.9
 (Enter /apps/gent/RHEL8/zen3x-ib/software/Gaussian/g16_C.01-iimpi-2020b/g16/l1002.exe.bin)
 Minotr:  Closed shell wavefunction.
          IDoAtm=11111111111111111111111111111111111111111111111111
          IDoAtm=1111111111111111111111111111111111111111111111
          Direct CPHF calculation.
          Differentiating once with respect to electric field.
                with respect to dipole field.
          Differentiating once with respect to nuclear coordinates.
          Requested convergence is 1.0D-08 RMS, and 1.0D-07 maximum.
          Secondary convergence is 1.0D-12 RMS, and 1.0D-12 maximum.
          NewPWx=T KeepS1=F KeepF1=F KeepIn=T MapXYZ=F SortEE=F KeepMc=T.
        30527 words used for storage of precomputed grid.
 Two-electron integral symmetry not used.
          MDV=    9395240960 using IRadAn=       1.
          Solving linear equations simultaneously, MaxMat=      96.
 FoF2E skips out because all densities are zero.
 CalDSu exits because no D1Ps are significant.
 FoFJK:  IHMeth= 1 ICntrl=       0 DoSepK=F KAlg= 0 I1Cent=           0 FoldK=F
 IRaf= 530000000 NMat=      48 IRICut=       1 DoRegI=T DoRafI=F ISym2E= 0 IDoP0=3 IntGTp=3.
 FoFCou: FMM=T IPFlag=           0 FMFlag=      100000 FMFlg1=        2001
         NFxFlg=           0 DoJE=F BraDBF=F KetDBF=F FulRan=T
         wScrn=  0.000000 ICntrl=         0 IOpCl=  0 I1Cent=           0 NGrid=           0
         NMat0=   48 NMatS0=     48 NMatT0=    0 NMatD0=   48 NMtDS0=    0 NMtDT0=    0
 Symmetry not used in FoFCou.
 FMM levels:  10  Number of levels for PrismC:   9
          There are   291 degrees of freedom in the 1st order CPHF.  IDoFFX=6 NUNeed=     3.
    291 vectors produced by pass  0 Test12= 2.78D-13 1.00D-09 XBig12= 2.10D+03 3.06D+01.
 AX will form    48 AO Fock derivatives at one time.
    288 vectors produced by pass  1 Test12= 2.78D-13 1.00D-09 XBig12= 4.63D+02 6.86D+00.
    288 vectors produced by pass  2 Test12= 2.78D-13 1.00D-09 XBig12= 3.21D+00 2.03D-01.
    288 vectors produced by pass  3 Test12= 2.78D-13 1.00D-09 XBig12= 1.24D-02 5.82D-03.
    288 vectors produced by pass  4 Test12= 2.78D-13 1.00D-09 XBig12= 4.55D-05 4.02D-04.
    271 vectors produced by pass  5 Test12= 2.78D-13 1.00D-09 XBig12= 7.66D-08 1.17D-05.
    100 vectors produced by pass  6 Test12= 2.78D-13 1.00D-09 XBig12= 1.18D-10 4.76D-07.
     10 vectors produced by pass  7 Test12= 2.78D-13 1.00D-09 XBig12= 1.63D-13 2.01D-08.
      2 vectors produced by pass  8 Test12= 2.78D-13 1.00D-09 XBig12= 5.34D-16 1.17D-09.
 InvSVY:  IOpt=1 It=  1 EMax= 1.07D-13
 Solved reduced A of dimension  1826 with   291 vectors.
 FullF1:  Do perturbations      1 to       3.
 Isotropic polarizability for W=    0.000000      960.61 Bohr**3.
 End of Minotr F.D. properties file   721 does not exist.
 End of Minotr F.D. properties file   722 does not exist.
 End of Minotr F.D. properties file   788 does not exist.
 Leave Link 1002 at Thu Oct  5 10:29:47 2023, MaxMem=  9395240960 cpu:          295380.4 elap:            4725.4
 (Enter /apps/gent/RHEL8/zen3x-ib/software/Gaussian/g16_C.01-iimpi-2020b/g16/l601.exe.bin)
 Copying SCF densities to generalized density rwf, IOpCl= 0 IROHF=0.

 **********************************************************************

            Population analysis using the SCF Density.

 **********************************************************************

 Alpha  occ. eigenvalues --  -19.09664 -19.09664 -19.09620 -19.09620 -19.09604
 Alpha  occ. eigenvalues --  -19.09603 -14.37400 -14.37399 -14.37182 -14.37181
 Alpha  occ. eigenvalues --  -14.37180 -14.37180 -10.25646 -10.25646 -10.25618
 Alpha  occ. eigenvalues --  -10.25618 -10.25610 -10.25610 -10.24271 -10.24271
 Alpha  occ. eigenvalues --  -10.24214 -10.24214 -10.24203 -10.24203 -10.24054
 Alpha  occ. eigenvalues --  -10.24053 -10.23777 -10.23777 -10.23773 -10.23773
 Alpha  occ. eigenvalues --  -10.20003 -10.20002 -10.19930 -10.19929 -10.19111
 Alpha  occ. eigenvalues --  -10.19111 -10.19105 -10.19105 -10.19058 -10.19057
 Alpha  occ. eigenvalues --  -10.19052 -10.19052 -10.19044 -10.19044 -10.19037
 Alpha  occ. eigenvalues --  -10.19037 -10.19001 -10.19001 -10.18995 -10.18995
 Alpha  occ. eigenvalues --  -10.18453 -10.18453 -10.18446 -10.18446 -10.17694
 Alpha  occ. eigenvalues --  -10.17694 -10.17638 -10.17638 -10.17626 -10.17625
 Alpha  occ. eigenvalues --   -1.03448  -1.03445  -1.02702  -1.02698  -1.02669
 Alpha  occ. eigenvalues --   -1.02669  -0.98690  -0.98389  -0.98347  -0.98347
 Alpha  occ. eigenvalues --   -0.98165  -0.98124  -0.87741  -0.87059  -0.87059
 Alpha  occ. eigenvalues --   -0.87044  -0.87043  -0.82961  -0.82676  -0.80551
 Alpha  occ. eigenvalues --   -0.79661  -0.79660  -0.78790  -0.77890  -0.77026
 Alpha  occ. eigenvalues --   -0.76700  -0.76680  -0.76680  -0.76604  -0.75802
 Alpha  occ. eigenvalues --   -0.74357  -0.74356  -0.74037  -0.69949  -0.68685
 Alpha  occ. eigenvalues --   -0.67098  -0.66213  -0.66211  -0.65360  -0.64953
 Alpha  occ. eigenvalues --   -0.63761  -0.63761  -0.63646  -0.63632  -0.61963
 Alpha  occ. eigenvalues --   -0.61520  -0.61270  -0.61154  -0.61133  -0.59643
 Alpha  occ. eigenvalues --   -0.58871  -0.58743  -0.58414  -0.57680  -0.57657
 Alpha  occ. eigenvalues --   -0.56390  -0.55999  -0.55815  -0.55636  -0.55108
 Alpha  occ. eigenvalues --   -0.54822  -0.51467  -0.51454  -0.50827  -0.50716
 Alpha  occ. eigenvalues --   -0.49514  -0.49390  -0.49211  -0.48724  -0.48721
 Alpha  occ. eigenvalues --   -0.47942  -0.47161  -0.46496  -0.46178  -0.46162
 Alpha  occ. eigenvalues --   -0.45947  -0.45725  -0.45692  -0.45575  -0.45542
 Alpha  occ. eigenvalues --   -0.45227  -0.45006  -0.44997  -0.44955  -0.44912
 Alpha  occ. eigenvalues --   -0.44669  -0.44061  -0.44059  -0.44014  -0.44004
 Alpha  occ. eigenvalues --   -0.43866  -0.43302  -0.43295  -0.43163  -0.42902
 Alpha  occ. eigenvalues --   -0.42620  -0.42566  -0.42551  -0.42147  -0.41837
 Alpha  occ. eigenvalues --   -0.41596  -0.41534  -0.40874  -0.40574  -0.40500
 Alpha  occ. eigenvalues --   -0.40459  -0.40144  -0.38796  -0.38674  -0.38674
 Alpha  occ. eigenvalues --   -0.38073  -0.37917  -0.37917  -0.37905  -0.37903
 Alpha  occ. eigenvalues --   -0.37289  -0.36362  -0.36361  -0.36327  -0.36326
 Alpha  occ. eigenvalues --   -0.36059  -0.36059  -0.35952  -0.35938  -0.34961
 Alpha  occ. eigenvalues --   -0.28593  -0.28247  -0.27939  -0.27938  -0.27723
 Alpha  occ. eigenvalues --   -0.27690  -0.27270  -0.27270  -0.27262  -0.27261
 Alpha  occ. eigenvalues --   -0.26890  -0.26880  -0.26838  -0.26837  -0.25099
 Alpha  occ. eigenvalues --   -0.24786  -0.24780  -0.23740  -0.22589  -0.21524
 Alpha  occ. eigenvalues --   -0.21524  -0.20541
 Alpha virt. eigenvalues --   -0.09157  -0.08185  -0.06670  -0.06218  -0.06216
 Alpha virt. eigenvalues --   -0.05116  -0.03783  -0.02901  -0.02901  -0.02893
 Alpha virt. eigenvalues --   -0.02893  -0.01039  -0.00960  -0.00811  -0.00789
 Alpha virt. eigenvalues --   -0.00516  -0.00453  -0.00452  -0.00299  -0.00268
 Alpha virt. eigenvalues --    0.00249   0.00448   0.00506   0.00621   0.00699
 Alpha virt. eigenvalues --    0.00783   0.01140   0.01265   0.01710   0.02065
 Alpha virt. eigenvalues --    0.02195   0.02494   0.02847   0.03018   0.03096
 Alpha virt. eigenvalues --    0.03588   0.03703   0.03830   0.03897   0.03901
 Alpha virt. eigenvalues --    0.04105   0.04186   0.04834   0.04840   0.05011
 Alpha virt. eigenvalues --    0.05033   0.05083   0.05090   0.05419   0.05572
 Alpha virt. eigenvalues --    0.05578   0.05827   0.06031   0.06278   0.06299
 Alpha virt. eigenvalues --    0.06364   0.06486   0.06827   0.06883   0.06957
 Alpha virt. eigenvalues --    0.07309   0.07466   0.07570   0.07850   0.07934
 Alpha virt. eigenvalues --    0.08105   0.08317   0.08473   0.08534   0.08572
 Alpha virt. eigenvalues --    0.08712   0.08735   0.08780   0.08848   0.09048
 Alpha virt. eigenvalues --    0.09385   0.09748   0.09830   0.09902   0.10106
 Alpha virt. eigenvalues --    0.10265   0.10359   0.10496   0.10528   0.10813
 Alpha virt. eigenvalues --    0.10956   0.11052   0.11150   0.11323   0.11335
 Alpha virt. eigenvalues --    0.11389   0.11430   0.11480   0.11510   0.11550
 Alpha virt. eigenvalues --    0.11572   0.11778   0.11831   0.11860   0.11895
 Alpha virt. eigenvalues --    0.11934   0.12097   0.12229   0.12327   0.12469
 Alpha virt. eigenvalues --    0.12478   0.12532   0.12580   0.12730   0.12811
 Alpha virt. eigenvalues --    0.12840   0.12982   0.12990   0.13099   0.13242
 Alpha virt. eigenvalues --    0.13262   0.13321   0.13328   0.13470   0.13475
 Alpha virt. eigenvalues --    0.13525   0.13558   0.13646   0.13861   0.13977
 Alpha virt. eigenvalues --    0.14339   0.14428   0.14434   0.14773   0.14924
 Alpha virt. eigenvalues --    0.14931   0.15104   0.15251   0.15355   0.15453
 Alpha virt. eigenvalues --    0.15615   0.15856   0.15928   0.16148   0.16166
 Alpha virt. eigenvalues --    0.16193   0.16252   0.16412   0.16657   0.16714
 Alpha virt. eigenvalues --    0.16913   0.17039   0.17123   0.17266   0.17511
 Alpha virt. eigenvalues --    0.17682   0.17759   0.17779   0.17815   0.17937
 Alpha virt. eigenvalues --    0.18056   0.18240   0.18350   0.18415   0.18542
 Alpha virt. eigenvalues --    0.18803   0.18843   0.18859   0.18908   0.19000
 Alpha virt. eigenvalues --    0.19021   0.19176   0.19180   0.19346   0.19568
 Alpha virt. eigenvalues --    0.19582   0.19725   0.19844   0.19869   0.19916
 Alpha virt. eigenvalues --    0.19968   0.20019   0.20117   0.20331   0.20597
 Alpha virt. eigenvalues --    0.20675   0.20851   0.20927   0.20989   0.21005
 Alpha virt. eigenvalues --    0.21303   0.21446   0.21505   0.22022   0.22043
 Alpha virt. eigenvalues --    0.22048   0.22073   0.22238   0.22359   0.22759
 Alpha virt. eigenvalues --    0.22767   0.22789   0.22900   0.23117   0.23322
 Alpha virt. eigenvalues --    0.23600   0.23800   0.23825   0.24027   0.24033
 Alpha virt. eigenvalues --    0.24234   0.24565   0.24789   0.24825   0.24863
 Alpha virt. eigenvalues --    0.24991   0.25030   0.25049   0.25114   0.25275
 Alpha virt. eigenvalues --    0.25330   0.25340   0.25486   0.25562   0.25714
 Alpha virt. eigenvalues --    0.25814   0.25842   0.26097   0.26332   0.26376
 Alpha virt. eigenvalues --    0.26421   0.26653   0.26718   0.26736   0.26801
 Alpha virt. eigenvalues --    0.26877   0.26952   0.27010   0.27074   0.27138
 Alpha virt. eigenvalues --    0.27232   0.27539   0.27603   0.27659   0.27783
 Alpha virt. eigenvalues --    0.28021   0.28150   0.28395   0.28582   0.28596
 Alpha virt. eigenvalues --    0.28618   0.28749   0.28930   0.28991   0.29082
 Alpha virt. eigenvalues --    0.29205   0.29475   0.29594   0.29654   0.29842
 Alpha virt. eigenvalues --    0.30020   0.30366   0.30388   0.30430   0.30734
 Alpha virt. eigenvalues --    0.30744   0.30878   0.31049   0.31102   0.31262
 Alpha virt. eigenvalues --    0.31502   0.31511   0.31799   0.31991   0.32349
 Alpha virt. eigenvalues --    0.32488   0.32506   0.32701   0.32910   0.32958
 Alpha virt. eigenvalues --    0.33016   0.33034   0.33165   0.33174   0.33219
 Alpha virt. eigenvalues --    0.33372   0.33403   0.33572   0.33728   0.33963
 Alpha virt. eigenvalues --    0.34015   0.34169   0.34275   0.34391   0.34551
 Alpha virt. eigenvalues --    0.34581   0.34918   0.34983   0.35021   0.35325
 Alpha virt. eigenvalues --    0.35367   0.35529   0.35664   0.35814   0.35933
 Alpha virt. eigenvalues --    0.36024   0.36247   0.36363   0.36681   0.36707
 Alpha virt. eigenvalues --    0.36831   0.36952   0.37301   0.37485   0.37494
 Alpha virt. eigenvalues --    0.37843   0.37962   0.38301   0.38445   0.38700
 Alpha virt. eigenvalues --    0.38802   0.38961   0.39135   0.39709   0.39845
 Alpha virt. eigenvalues --    0.39884   0.40247   0.40742   0.41075   0.41270
 Alpha virt. eigenvalues --    0.41444   0.41894   0.42236   0.42297   0.42664
 Alpha virt. eigenvalues --    0.42777   0.43111   0.43247   0.43404   0.43714
 Alpha virt. eigenvalues --    0.43817   0.43962   0.44134   0.44483   0.45310
 Alpha virt. eigenvalues --    0.45417   0.45771   0.46135   0.46186   0.46680
 Alpha virt. eigenvalues --    0.47105   0.47245   0.47379   0.47785   0.48225
 Alpha virt. eigenvalues --    0.48846   0.49558   0.49630   0.49944   0.50014
 Alpha virt. eigenvalues --    0.50205   0.50916   0.51170   0.51575   0.51734
 Alpha virt. eigenvalues --    0.52267   0.52340   0.52484   0.52602   0.52805
 Alpha virt. eigenvalues --    0.52856   0.53028   0.53316   0.53478   0.53607
 Alpha virt. eigenvalues --    0.53811   0.53842   0.53868   0.53960   0.54106
 Alpha virt. eigenvalues --    0.54731   0.54777   0.55055   0.55257   0.55353
 Alpha virt. eigenvalues --    0.55382   0.55550   0.55571   0.55594   0.55842
 Alpha virt. eigenvalues --    0.55917   0.56177   0.56308   0.56653   0.56872
 Alpha virt. eigenvalues --    0.56904   0.56994   0.57072   0.57168   0.57300
 Alpha virt. eigenvalues --    0.57393   0.57431   0.57544   0.57645   0.57747
 Alpha virt. eigenvalues --    0.57830   0.57981   0.58084   0.58179   0.58491
 Alpha virt. eigenvalues --    0.58914   0.58943   0.59044   0.59053   0.59258
 Alpha virt. eigenvalues --    0.59546   0.59667   0.59732   0.59761   0.59910
 Alpha virt. eigenvalues --    0.59951   0.60565   0.60572   0.60769   0.61617
 Alpha virt. eigenvalues --    0.61715   0.62169   0.62219   0.62328   0.62793
 Alpha virt. eigenvalues --    0.63410   0.63537   0.63577   0.63742   0.63981
 Alpha virt. eigenvalues --    0.64113   0.64235   0.64312   0.64470   0.64631
 Alpha virt. eigenvalues --    0.64708   0.64914   0.64928   0.65249   0.65621
 Alpha virt. eigenvalues --    0.66031   0.66426   0.66545   0.66803   0.67046
 Alpha virt. eigenvalues --    0.67097   0.67342   0.67383   0.67977   0.68100
 Alpha virt. eigenvalues --    0.68116   0.68508   0.68724   0.69017   0.69051
 Alpha virt. eigenvalues --    0.69427   0.69498   0.69925   0.69956   0.70516
 Alpha virt. eigenvalues --    0.70528   0.70778   0.71023   0.71234   0.71649
 Alpha virt. eigenvalues --    0.71831   0.72188   0.72346   0.72353   0.72477
 Alpha virt. eigenvalues --    0.72776   0.72850   0.72878   0.73078   0.73327
 Alpha virt. eigenvalues --    0.73719   0.73897   0.73936   0.74546   0.74710
 Alpha virt. eigenvalues --    0.74880   0.75075   0.75492   0.75510   0.76144
 Alpha virt. eigenvalues --    0.76348   0.76582   0.76853   0.76960   0.77035
 Alpha virt. eigenvalues --    0.77437   0.77771   0.78176   0.78666   0.78778
 Alpha virt. eigenvalues --    0.78869   0.79124   0.79406   0.79512   0.79658
 Alpha virt. eigenvalues --    0.80331   0.81020   0.81656   0.81879   0.82250
 Alpha virt. eigenvalues --    0.82549   0.82791   0.82861   0.83004   0.83070
 Alpha virt. eigenvalues --    0.83818   0.83952   0.83979   0.84300   0.84391
 Alpha virt. eigenvalues --    0.84455   0.84500   0.84578   0.85271   0.85737
 Alpha virt. eigenvalues --    0.86375   0.86528   0.86761   0.86805   0.86960
 Alpha virt. eigenvalues --    0.87227   0.87252   0.87326   0.87369   0.87443
 Alpha virt. eigenvalues --    0.87916   0.88111   0.88369   0.88674   0.89006
 Alpha virt. eigenvalues --    0.89057   0.89415   0.89427   0.89690   0.90249
 Alpha virt. eigenvalues --    0.90454   0.90485   0.90602   0.90920   0.91275
 Alpha virt. eigenvalues --    0.91402   0.91418   0.91596   0.91668   0.91839
 Alpha virt. eigenvalues --    0.91971   0.92203   0.92623   0.92669   0.92984
 Alpha virt. eigenvalues --    0.93422   0.93529   0.94090   0.94141   0.94484
 Alpha virt. eigenvalues --    0.94546   0.94979   0.95075   0.95218   0.95998
 Alpha virt. eigenvalues --    0.96040   0.96417   0.96628   0.96737   0.97035
 Alpha virt. eigenvalues --    0.97231   0.97313   0.97899   0.98653   0.98663
 Alpha virt. eigenvalues --    0.99279   0.99399   0.99441   0.99453   0.99493
 Alpha virt. eigenvalues --    0.99619   0.99631   1.00345   1.00625   1.00884
 Alpha virt. eigenvalues --    1.01436   1.01446   1.01979   1.02338   1.02574
 Alpha virt. eigenvalues --    1.02792   1.03051   1.03070   1.03814   1.04100
 Alpha virt. eigenvalues --    1.04302   1.05036   1.05147   1.05274   1.05408
 Alpha virt. eigenvalues --    1.05697   1.05864   1.05947   1.06242   1.06379
 Alpha virt. eigenvalues --    1.06638   1.06795   1.06831   1.06950   1.06970
 Alpha virt. eigenvalues --    1.07551   1.07867   1.08007   1.08042   1.08093
 Alpha virt. eigenvalues --    1.08099   1.08164   1.08313   1.08352   1.08925
 Alpha virt. eigenvalues --    1.09531   1.10377   1.10444   1.10520   1.10939
 Alpha virt. eigenvalues --    1.11155   1.11334   1.11927   1.11948   1.12350
 Alpha virt. eigenvalues --    1.12438   1.12564   1.12739   1.12858   1.12966
 Alpha virt. eigenvalues --    1.13033   1.13298   1.13926   1.14263   1.14478
 Alpha virt. eigenvalues --    1.14816   1.14854   1.15727   1.15817   1.17039
 Alpha virt. eigenvalues --    1.17483   1.17886   1.18107   1.19150   1.19271
 Alpha virt. eigenvalues --    1.19606   1.19625   1.19807   1.19922   1.20455
 Alpha virt. eigenvalues --    1.20615   1.21607   1.21814   1.21838   1.22550
 Alpha virt. eigenvalues --    1.23976   1.24293   1.24627   1.25006   1.25794
 Alpha virt. eigenvalues --    1.25921   1.25944   1.26025   1.26043   1.28345
 Alpha virt. eigenvalues --    1.28719   1.29484   1.29493   1.30409   1.30475
 Alpha virt. eigenvalues --    1.31728   1.32065   1.32309   1.33123   1.33344
 Alpha virt. eigenvalues --    1.33391   1.34102   1.34357   1.34711   1.34995
 Alpha virt. eigenvalues --    1.35073   1.35629   1.35821   1.36073   1.36443
 Alpha virt. eigenvalues --    1.36856   1.37137   1.40160   1.40734   1.42276
 Alpha virt. eigenvalues --    1.42970   1.43196   1.45362   1.46110   1.47862
 Alpha virt. eigenvalues --    1.48459   1.48519   1.49302   1.49313   1.49750
 Alpha virt. eigenvalues --    1.50012   1.50653   1.50739   1.50757   1.50874
 Alpha virt. eigenvalues --    1.51019   1.51395   1.51791   1.51813   1.51868
 Alpha virt. eigenvalues --    1.51888   1.52246   1.52843   1.53043   1.53451
 Alpha virt. eigenvalues --    1.53478   1.53975   1.54011   1.54695   1.54932
 Alpha virt. eigenvalues --    1.55222   1.55330   1.55354   1.55379   1.55484
 Alpha virt. eigenvalues --    1.55547   1.55658   1.55692   1.55852   1.55858
 Alpha virt. eigenvalues --    1.55981   1.55986   1.56030   1.56039   1.56202
 Alpha virt. eigenvalues --    1.56255   1.56388   1.56787   1.57200   1.57484
 Alpha virt. eigenvalues --    1.57606   1.57897   1.57998   1.58422   1.59003
 Alpha virt. eigenvalues --    1.59186   1.59296   1.59545   1.61433   1.61470
 Alpha virt. eigenvalues --    1.61589   1.61863   1.63572   1.64445   1.64949
 Alpha virt. eigenvalues --    1.65154   1.65221   1.65284   1.65287   1.65296
 Alpha virt. eigenvalues --    1.65397   1.65541   1.65841   1.66159   1.66315
 Alpha virt. eigenvalues --    1.66529   1.66694   1.66815   1.67018   1.67030
 Alpha virt. eigenvalues --    1.67898   1.68018   1.68756   1.69467   1.72849
 Alpha virt. eigenvalues --    1.72856   1.72928   1.72976   1.73188   1.73770
 Alpha virt. eigenvalues --    1.73890   1.73935   1.74018   1.74025   1.74262
 Alpha virt. eigenvalues --    1.74292   1.74727   1.75150   1.75530   1.76217
 Alpha virt. eigenvalues --    1.76230   1.76248   1.76254   1.76931   1.77062
 Alpha virt. eigenvalues --    1.77694   1.77806   1.78248   1.78306   1.78780
 Alpha virt. eigenvalues --    1.79255   1.81368   1.81416   1.81558   1.81620
 Alpha virt. eigenvalues --    1.82277   1.82370   1.82454   1.82537   1.82670
 Alpha virt. eigenvalues --    1.83528   1.84375   1.84729   1.85859   1.85948
 Alpha virt. eigenvalues --    1.86186   1.86290   1.86313   1.86417   1.87109
 Alpha virt. eigenvalues --    1.87400   1.87715   1.87917   1.87919   1.88472
 Alpha virt. eigenvalues --    1.89704   1.89709   1.89880   1.90325   1.90937
 Alpha virt. eigenvalues --    1.91041   1.91259   1.91474   1.91660   1.91666
 Alpha virt. eigenvalues --    1.91690   1.91702   1.92113   1.92371   1.92909
 Alpha virt. eigenvalues --    1.94543   1.94689   1.94934   1.94936   1.95889
 Alpha virt. eigenvalues --    1.95936   1.95999   1.96153   1.96174   1.96430
 Alpha virt. eigenvalues --    1.96466   1.96663   1.96802   1.96930   1.97285
 Alpha virt. eigenvalues --    1.97373   1.98043   1.98133   1.99291   1.99640
 Alpha virt. eigenvalues --    1.99745   2.00111   2.00127   2.00471   2.00786
 Alpha virt. eigenvalues --    2.01043   2.01157   2.01764   2.02681   2.02756
 Alpha virt. eigenvalues --    2.03065   2.03441   2.04468   2.04557   2.04968
 Alpha virt. eigenvalues --    2.05131   2.05167   2.05424   2.05505   2.05659
 Alpha virt. eigenvalues --    2.06216   2.06319   2.06706   2.06717   2.07102
 Alpha virt. eigenvalues --    2.07201   2.07582   2.07592   2.08155   2.08611
 Alpha virt. eigenvalues --    2.09042   2.10494   2.12433   2.13653   2.15283
 Alpha virt. eigenvalues --    2.15408   2.15472   2.17493   2.17749   2.17874
 Alpha virt. eigenvalues --    2.18264   2.18755   2.18839   2.19201   2.19515
 Alpha virt. eigenvalues --    2.21049   2.21250   2.23686   2.24241   2.24247
 Alpha virt. eigenvalues --    2.24699   2.24786   2.25113   2.25126   2.25671
 Alpha virt. eigenvalues --    2.26057   2.26519   2.26872   2.27107   2.27324
 Alpha virt. eigenvalues --    2.27331   2.29056   2.29059   2.29887   2.30009
 Alpha virt. eigenvalues --    2.32433   2.34845   2.34963   2.35439   2.36080
 Alpha virt. eigenvalues --    2.37860   2.38351   2.41274   2.41312   2.41393
 Alpha virt. eigenvalues --    2.42260   2.42763   2.43189   2.43308   2.43415
 Alpha virt. eigenvalues --    2.43519   2.44848   2.45265   2.45337   2.45375
 Alpha virt. eigenvalues --    2.45393   2.45667   2.46079   2.46520   2.46850
 Alpha virt. eigenvalues --    2.46968   2.47064   2.47096   2.47124   2.47160
 Alpha virt. eigenvalues --    2.47656   2.47908   2.49726   2.50395   2.50412
 Alpha virt. eigenvalues --    2.51578   2.52086   2.52826   2.53567   2.53793
 Alpha virt. eigenvalues --    2.53827   2.53945   2.54027   2.54904   2.54970
 Alpha virt. eigenvalues --    2.56027   2.56049   2.56238   2.56514   2.60724
 Alpha virt. eigenvalues --    2.61462   2.62290   2.62543   2.62969   2.63146
 Alpha virt. eigenvalues --    2.63713   2.63863   2.63904   2.64284   2.64609
 Alpha virt. eigenvalues --    2.64891   2.64938   2.65455   2.65462   2.65894
 Alpha virt. eigenvalues --    2.65921   2.66060   2.67019   2.67676   2.69764
 Alpha virt. eigenvalues --    2.70008   2.70018   2.70184   2.70675   2.70726
 Alpha virt. eigenvalues --    2.71309   2.71667   2.72135   2.72180   2.72264
 Alpha virt. eigenvalues --    2.72273   2.72392   2.72551   2.72619   2.72697
 Alpha virt. eigenvalues --    2.72939   2.73156   2.73263   2.73461   2.73533
 Alpha virt. eigenvalues --    2.73904   2.73990   2.74200   2.74398   2.74578
 Alpha virt. eigenvalues --    2.74753   2.76480   2.76621   2.76833   2.76836
 Alpha virt. eigenvalues --    2.77758   2.77885   2.77977   2.78024   2.78103
 Alpha virt. eigenvalues --    2.78411   2.79862   2.79976   2.80158   2.80282
 Alpha virt. eigenvalues --    2.80739   2.81042   2.81091   2.81303   2.81505
 Alpha virt. eigenvalues --    2.81586   2.81643   2.82628   2.82711   2.83021
 Alpha virt. eigenvalues --    2.83261   2.83298   2.83665   2.83687   2.83958
 Alpha virt. eigenvalues --    2.83998   2.84762   2.85241   2.85251   2.85584
 Alpha virt. eigenvalues --    2.85909   2.85939   2.85952   2.86592   2.86619
 Alpha virt. eigenvalues --    2.86781   2.86899   2.87061   2.87143   2.87375
 Alpha virt. eigenvalues --    2.87652   2.88645   2.88729   2.89198   2.89210
 Alpha virt. eigenvalues --    2.90246   2.91163   2.91821   2.91828   2.91963
 Alpha virt. eigenvalues --    2.92004   2.92477   2.93653   2.93930   2.93937
 Alpha virt. eigenvalues --    2.94135   2.94147   2.94436   2.95217   2.97385
 Alpha virt. eigenvalues --    2.98213   2.98248   2.98572   3.01081   3.01366
 Alpha virt. eigenvalues --    3.02902   3.02942   3.03199   3.03424   3.03845
 Alpha virt. eigenvalues --    3.04448   3.04580   3.05799   3.05898   3.06672
 Alpha virt. eigenvalues --    3.06728   3.06791   3.06807   3.06817   3.07045
 Alpha virt. eigenvalues --    3.07064   3.07320   3.07664   3.08364   3.12402
 Alpha virt. eigenvalues --    3.13059   3.13247   3.13850   3.13903   3.14995
 Alpha virt. eigenvalues --    3.18580   3.18696   3.19166   3.19207   3.21167
 Alpha virt. eigenvalues --    3.22454   3.23197   3.26445   3.26636   3.26802
 Alpha virt. eigenvalues --    3.26962   3.28008   3.28402   3.29960   3.30102
 Alpha virt. eigenvalues --    3.30159   3.30360   3.33149   3.33160   3.33261
 Alpha virt. eigenvalues --    3.33264   3.33527   3.33811   3.34038   3.34047
 Alpha virt. eigenvalues --    3.34784   3.35546   3.35752   3.35852   3.36047
 Alpha virt. eigenvalues --    3.36349   3.36815   3.37320   3.38025   3.38885
 Alpha virt. eigenvalues --    3.39611   3.39719   3.40038   3.42665   3.46046
 Alpha virt. eigenvalues --    3.47420   3.47479   3.47571   3.47811   3.50640
 Alpha virt. eigenvalues --    3.50713   3.51068   3.51101   3.51785   3.54479
 Alpha virt. eigenvalues --    3.54733   3.54821   3.54841   3.54926   3.56786
 Alpha virt. eigenvalues --    3.57164   3.57501   3.57573   3.57713   3.58169
 Alpha virt. eigenvalues --    3.59345   3.59551   3.59739   3.60569   3.62045
 Alpha virt. eigenvalues --    3.63608   3.65365   3.65941   3.65954   3.70572
 Alpha virt. eigenvalues --    3.71727   3.75110   3.75456   3.75498   3.75723
 Alpha virt. eigenvalues --    3.78236   3.78543   3.82632   3.82740   3.83042
 Alpha virt. eigenvalues --    3.83292   3.86848   3.87938   3.88088   3.88627
 Alpha virt. eigenvalues --    3.88635   3.88690   3.89501   3.89648   3.90440
 Alpha virt. eigenvalues --    3.91920   3.91934   3.95287   3.96245   3.99027
 Alpha virt. eigenvalues --    3.99793   3.99957   3.99969   4.00059   4.02037
 Alpha virt. eigenvalues --    4.04903   4.04906   4.04993   4.05018   4.15263
 Alpha virt. eigenvalues --    4.15354   4.15549   4.15561   4.15970   4.17696
 Alpha virt. eigenvalues --    4.17745   4.17848   4.17853   4.21766   4.24934
 Alpha virt. eigenvalues --    4.25202   4.25269   4.25363   4.34305   4.34695
 Alpha virt. eigenvalues --    4.44514   4.44614   4.44737   4.45229   4.75465
 Alpha virt. eigenvalues --    4.75475   4.84149   4.84209   4.84381   4.84390
 Alpha virt. eigenvalues --    4.85132   4.86564   4.87371   4.87389   4.87861
 Alpha virt. eigenvalues --    4.89329   4.89984   5.07551   5.07554   5.07599
 Alpha virt. eigenvalues --    5.07732   5.09893   5.10028   5.13804   5.17317
 Alpha virt. eigenvalues --    5.20250   5.23026   5.23063   5.29508   5.37360
 Alpha virt. eigenvalues --    5.38070   5.38327   5.38610   5.38860   5.39460
 Alpha virt. eigenvalues --    5.80525   5.80737   5.85674   5.85692   5.85895
 Alpha virt. eigenvalues --    5.86080  23.60235  23.61251  23.63852  23.63885
 Alpha virt. eigenvalues --   23.65381  23.72070  23.73091  23.86384  23.86556
 Alpha virt. eigenvalues --   23.86596  23.86749  23.91937  23.92042  23.92113
 Alpha virt. eigenvalues --   23.92132  23.94665  23.95566  23.95566  23.95781
 Alpha virt. eigenvalues --   23.95789  23.95944  23.95963  23.96120  23.96157
 Alpha virt. eigenvalues --   23.96307  23.96469  23.96754  24.02446  24.05835
 Alpha virt. eigenvalues --   24.05837  24.05864  24.05867  24.08792  24.08847
 Alpha virt. eigenvalues --   24.08877  24.08891  24.09386  24.09388  24.09400
 Alpha virt. eigenvalues --   24.09403  24.10060  24.10079  24.10567  24.17461
 Alpha virt. eigenvalues --   24.18439  24.18453  24.18513  24.18518  35.65145
 Alpha virt. eigenvalues --   35.66350  35.66683  35.67272  35.67277  35.68827
[...]
 00510,-0.00003076,-0.00003549,0.00001705,0.00002395,0.00004727,-0.0000
 1137,-0.00003241,-0.00003721,0.00001680,0.00008333,0.00002314,-0.00004
 688,-0.00011678,-0.00000347,0.00006634,0.00006195,-0.00005853,-0.00003
 689,-0.00003367,0.00000682,0.00001926,0.00001378,-0.00000521,-0.000007
 15,-0.00001680,-0.00000812,0.00000936,-0.00007454,0.00000887,0.0000419
 7,-0.00000979,0.00004466,0.00000640,-0.00000364,-0.00000229,0.00000198
 ,0.00000282,-0.00000450,-0.00000138,0.00000103,-0.00000480,-0.00000066
 ,0.00001731,-0.00003490,-0.00000952,0.00015582,-0.00002424,-0.00008345
 ,0.00000631,-0.00000028,-0.00000376,-0.00000595,0.00001019,0.00000325,
 0.00000371,0.00000495,-0.00000181,0.00000114,-0.00000023,-0.00000105,-
 0.00000190,0.00000260,0.00000062,0.00000073,0.00000096,-0.00000041,-0.
 00001369,0.00003169,0.00000768,-0.00000013,-0.00000036,-0.00000005,-0.
 00019866,0.00030135,0.00013655,-0.00004437,0.00001237,0.00002131,0.000
 00326,-0.00001090,-0.00000216,-0.00000042,0.00000081,0.00000016,-0.000
 00544,-0.00000022,0.00000312,-0.00000007,-0.00000002,0.00000006,0.0000
 1582,-0.00001192,-0.00000838,0.00000372,-0.00000160,-0.00000225,0.0007
 5707,-0.00113514,-0.00044059,0.00013375,0.00000503,-0.00007685,-0.0000
 0525,0.00000382,0.00000319,-0.00000022,0.00000042,0.00000020,0.0000028
 9,0.00000179,-0.00000195,0.00000088,0.00000144,-0.00000048,-0.00000122
 ,0.00000022,0.00000053,-0.00000310,0.00000493,0.00000129,0.00273041,-0
 .00128298,-0.00170282,0.00000111,-0.00000154,-0.00000064,-0.00000384,-
 0.00000006,0.00000189,0.00000199,-0.00000138,-0.00000059,-0.00000003,-
 0.00000063,0.00000004,0.00065219,-0.00542283,-0.00062051,0.01500666,0.
 01155794,-0.00823760,0.00074989,0.00036054,-0.00042096,0.00000132,0.00
 000016,-0.00000058,-0.00000076,0.00000043,0.00000022,0.00000002,0.0000
 0025,-0.00000004,0.00000002,-0.00000064,0.00000040,0.00000043,0.000000
 14,-0.00000020,0.00000012,-0.00000014,-0.00000008,0.00000006,0.0000003
 8,0.00000010,0.00000014,0.00000018,-0.00000009,-0.00000040,-0.00000056
 ,0.00000004,-0.00000008,0.00000013,0.00000003,0.00000116,-0.00000003,-
 0.00000072,0.,-0.00000016,0.00000004,-0.00000063,-0.00000067,0.0000003
 2,-0.00000043,-0.00000005,0.00000030,-0.00000297,0.00000043,0.00000160
 ,0.00000009,0.00000069,-0.00000013,0.00000093,0.00000126,-0.00000063,0
 .00000093,0.00000023,-0.00000077,-0.09731254,-0.11362097,0.05302108,-0
 .00029938,0.00066754,0.00026417,-0.02579003,-0.00861831,0.01426247,-0.
 00123665,-0.00052861,0.00067765,-0.00000049,0.00000046,0.00000023,-0.0
 0000071,-0.00000027,0.00000050,-0.00000021,-0.00000009,0.00000010,-0.0
 0000003,-0.00000023,0.00000003,0.00000012,-0.00000020,-0.00000007,0.00
 000021,0.00000017,-0.00000014,0.10442570,0.11709131,-0.00000213,-0.000
 01279,0.00000317,-0.00000039,-0.00002439,0.00000449,-0.00000176,0.0000
 0030,0.00000024,-0.00000311,0.00000162,-0.00000003,0.00000298,0.000005
 32,-0.00000084,0.00000379,0.00000350,-0.00000301,0.,0.00000046,0.00000
 098,-0.00000040,-0.00000051,0.00000101,0.00000161,-0.00000118,0.000001
 12,0.00000077,0.00000028,0.00000020,0.00001125,0.00001887,-0.00000736,
 -0.00001180,-0.00001930,0.00000489,-0.00000019,0.00001936,-0.00000001,
 -0.00000862,-0.00000926,0.00000512,0.00000344,0.00000646,-0.00000225,0
 .00000023,-0.00000257,0.00000049,-0.00000411,0.00000659,0.00000145,0.0
 0000700,-0.00001079,-0.00000295,0.00002469,0.00003433,-0.00001863,-0.0
 0002622,-0.00004379,-0.00000617,0.00002313,0.00004472,0.00000401,-0.00
 005129,-0.00006033,-0.00002963,0.00004051,0.00006676,-0.00004930,-0.00
 003499,0.00000663,0.00008524,0.00003611,0.00000109,-0.00002999,-0.0000
 1024,-0.00000808,-0.00000182,0.00001406,0.00001254,-0.00000974,0.00003
 162,0.00003056,0.00000136,0.00001768,-0.00000301,-0.00002918,0.0000034
 2,0.00000178,-0.00000267,-0.00000209,0.00000387,-0.00000054,-0.0000005
 4,0.00000404,-0.00000020,-0.00001761,0.00003928,0.00001220,-0.00010937
 ,-0.00004811,-0.00003192,-0.00000688,0.00000023,0.00000420,0.00000411,
 -0.00000702,-0.00000209,-0.00000073,-0.00000321,0.00000332,0.00000034,
 -0.00000116,0.00000258,0.00000195,-0.00000186,0.00000061,-0.00000047,-
 0.00000079,0.00000064,0.00001498,-0.00003476,-0.00001396,0.00000186,0.
 00000016,0.00000216,-0.00033982,0.00005913,-0.00067958,0.00001776,0.00
 002034,0.00010854,-0.00000211,0.00000758,0.00000104,0.00000046,-0.0000
 0065,0.00000015,0.00000595,-0.00000006,-0.00000366,0.00000002,0.000000
 03,0.00000012,-0.00001654,0.00001554,0.00001397,-0.00000802,0.00000220
 ,0.00000849,-0.00031863,-0.00047474,-0.00027754,0.00001437,-0.00002273
 ,0.00002980,0.00000352,-0.00000253,-0.00000188,0.00000006,-0.00000039,
 0.00000032,-0.00000321,-0.00000190,0.00000217,-0.00000070,-0.00000127,
 0.00000077,0.00000120,-0.00000015,-0.00000071,0.00000214,-0.00000662,-
 0.00000296,0.00375930,-0.00205749,0.00434550,-0.00000083,0.00000104,0.
 00000025,0.00000338,-0.00000038,-0.00000442,-0.00000300,0.00000246,-0.
 00000066,0.00000052,0.00000147,0.00000151,0.00210886,-0.00024958,0.005
 56124,0.00901748,0.00705208,-0.00262952,0.00053924,0.00032456,-0.00001
 531,-0.00000103,-0.00000006,0.00000002,0.00000042,-0.00000035,-0.00000
 023,0.00000012,-0.00000018,0.00000016,0.,0.00000071,-0.00000049,-0.000
 00056,-0.00000015,0.00000008,-0.00000005,0.00000012,0.00000025,-0.0000
 0010,-0.00000045,-0.00000026,-0.00000006,-0.00000021,0.00000018,0.0000
 0038,0.00000057,-0.00000012,0.00000016,-0.00000013,0.00000007,-0.00000
 079,0.00000012,0.00000024,0.00000006,0.00000016,0.00000010,0.00000010,
 0.00000031,-0.00000038,0.00000038,0.00000007,0.00000016,0.00000387,-0.
 00000084,-0.00000172,0.00000050,-0.00000100,0.00000086,-0.00000153,-0.
 00000126,-0.00000035,-0.00000084,-0.00000031,0.00000124,0.10505987,0.0
 5299364,-0.09177905,-0.00190058,-0.00013126,-0.00275343,-0.00033982,-0
 .00098973,0.00248588,0.00011856,-0.00009314,0.00023354,0.00000092,-0.0
 0000042,-0.00000006,0.00000113,0.00000025,0.,0.00000026,0.00000011,-0.
 00000002,0.00000007,0.00000021,0.00000008,0.,0.00000007,0.00000025,0.0
 0000010,-0.00000012,0.00000031,-0.11576128,-0.05674324,0.08822164,0.00
 000772,0.00002310,-0.00000498,0.00000545,0.00007461,-0.00000282,0.0000
 0374,0.00000254,-0.00000336,0.00000382,-0.00000583,-0.00000370,-0.0000
 0809,-0.00001800,0.00000365,-0.00001155,-0.00000934,0.00000470,0.00000
 077,-0.00000324,0.00000092,0.00000237,0.00000123,-0.00000071,-0.000002
 66,0.00000481,0.00000277,-0.00000083,-0.00000076,0.00000057,-0.0000219
 9,-0.00003874,0.00001131,0.00002260,0.00003713,-0.00000984,0.00000368,
 -0.00003733,-0.00000275,0.00001346,0.00001396,-0.00000721,-0.00000155,
 -0.00000966,0.00000099,-0.00000651,0.00000377,0.00000384,0.00001222,-0
 .00001102,-0.00000694,-0.00002121,0.00001759,0.00001257,-0.00007724,-0
 .00010460,0.00004101,0.00005548,0.00013627,-0.00001494,-0.00003849,-0.
 00013403,0.00000738,0.00003278,0.00028141,-0.00001807,-0.00035787,-0.0
 0013173,0.00016064,0.00018115,-0.00013466,-0.00008712,-0.00010556,-0.0
 0000338,0.00005584,0.00001202,0.00004456,0.00000245,-0.00003658,-0.000
 04156,0.00001776,0.00000065,-0.00015075,-0.00001973,-0.00005092,0.0000
 7078,0.00002068,-0.00000461,-0.00000314,0.00000185,0.00001063,-0.00000
 264,-0.00000694,0.00000259,-0.00000641,-0.00000205,0.00003967,-0.00009
 464,-0.00002329,0.00028448,-0.00032531,-0.00019977,0.00000606,-0.00000
 059,-0.00000380,-0.00000999,0.00001539,0.00000589,0.00000292,0.0000079
 8,0.00000025,0.00000104,0.00000650,0.00000053,-0.00000448,0.00000351,0
 .00000285,0.00000110,0.00000153,-0.00000028,-0.00003846,0.00007787,0.0
 0002322,-0.00000234,0.00000140,0.00000148,-0.00116315,0.00096963,0.000
 82236,0.00002146,0.00000404,-0.00000562,0.00000550,-0.00001685,-0.0000
 0407,-0.00000059,0.00000084,0.00000051,-0.00000494,-0.00000079,0.00000
 277,-0.00000023,-0.00000003,0.00000028,0.00003972,-0.00003284,-0.00002
 475,0.00002109,-0.00000524,-0.00000946,-0.00000098,-0.00322464,0.00410
 374,0.00004421,0.00018051,-0.00001858,-0.00000857,0.00000599,0.0000055
 5,-0.00000074,0.00000054,0.00000088,0.00000222,0.00000159,-0.00000191,
 0.00000113,0.00000195,-0.00000028,-0.00000137,0.00000046,0.00000037,-0
 .00000738,0.00001332,0.00000361,-0.00019100,-0.00075335,-0.00042761,0.
 00000167,-0.00000236,-0.00000111,-0.00000991,0.00000074,0.00000624,0.0
 0000436,-0.00000451,-0.00000256,0.00000064,-0.00000252,0.00000053,-0.0
 1341746,0.01546391,0.00962137,0.00287614,-0.00093938,0.00224940,-0.000
 23569,0.00008504,-0.00038617,0.00000204,-0.00000009,-0.00000131,-0.000
 00147,0.00000073,0.00000015,0.00000017,0.00000041,-0.00000002,0.000000
 44,-0.00000036,0.00000045,0.00000030,0.00000002,-0.00000021,0.00000014
 ,-0.00000018,0.00000005,0.00000019,0.00000030,0.,0.00000027,0.00000007
 ,-0.00000007,-0.00000051,-0.00000052,-0.00000013,-0.00000005,0.0000001
 6,0.00000013,0.00000214,0.00000004,-0.00000147,0.00000014,-0.00000005,
 0.00000015,-0.00000127,-0.00000131,0.00000027,-0.00000076,0.00000003,0
 .00000091,-0.00000789,0.00000181,0.00000469,0.00000009,0.00000187,0.00
 000028,0.00000210,0.00000286,-0.00000191,0.00000270,0.00000069,-0.0000
 0149,0.00533164,-0.00300869,-0.00111224,0.00012190,-0.00022179,-0.0000
 2814,-0.19540992,0.11103165,0.09148969,-0.00050937,-0.00027177,-0.0020
 4617,-0.00000125,0.00000098,0.00000084,-0.00000175,-0.00000037,0.00000
 133,-0.00000023,-0.00000012,0.00000017,0.,-0.00000031,0.00000012,0.000
 00016,-0.00000028,0.00000009,0.00000077,-0.00000001,-0.00000012,-0.000
 42542,0.00038029,-0.00191428,0.20301311,-0.00000256,-0.00001671,0.0000
 0179,-0.00000260,-0.00002062,0.00000084,-0.00000135,0.00000134,0.00000
 056,-0.00000399,0.00000069,0.00000116,0.00000284,0.00000455,-0.0000014
 8,0.00000420,0.00000386,-0.00000228,-0.00000065,-0.00000058,0.00000062
 ,-0.00000025,-0.00000049,0.00000046,0.00000068,-0.00000043,0.00000042,
 0.00000071,0.00000019,-0.00000015,0.00001505,0.00002297,-0.00000804,-0
 .00001451,-0.00002456,0.00000715,0.00000073,0.00002377,-0.00000015,-0.
 00001171,-0.00001244,0.00000656,0.00000544,0.00000902,-0.00000321,-0.0
 0000104,-0.00000358,0.00000055,-0.00000446,0.00000909,0.00000248,0.000
 00573,-0.00001510,-0.00000350,0.00002545,0.00002885,-0.00001408,-0.000
 02021,-0.00003773,0.00001039,0.00002014,0.00003299,-0.00001059,-0.0000
 2603,-0.00005486,0.00001432,0.00005000,0.00010829,-0.00002607,-0.00007
 164,0.00000130,0.00003854,0.00003069,0.00000612,-0.00001588,-0.0000110
 2,-0.00000143,0.00000573,0.00001522,0.00000985,-0.00000841,0.00001224,
 -0.00001143,-0.00000640,0.00001470,-0.00001120,-0.00000774,0.00000526,
 0.00000244,-0.00000290,0.00000054,0.00000649,-0.00000045,-0.00000009,0
 .00000558,0.00000016,-0.00001875,0.00003154,0.00000992,-0.00024068,-0.
 00019261,0.00013608,-0.00000990,0.00000021,0.00000587,0.00000492,-0.00
 000902,-0.00000296,-0.00000333,-0.00000276,0.00000153,-0.00000155,0.00
 000009,0.00000080,0.00000089,-0.00000256,-0.00000033,-0.00000071,-0.00
 000109,0.00000034,0.00001475,-0.00003066,-0.00000853,-0.00000052,0.000
 00075,0.00000047,-0.00045540,0.00051232,0.00025798,-0.00000465,0.00000
 491,0.00000201,-0.00000226,0.00001002,0.00000174,0.00000036,-0.0000010
 4,-0.00000010,0.00000865,-0.00000015,-0.00000498,-0.00000010,0.0000000
 5,0.00000003,-0.00001572,0.00001266,0.00000956,-0.00000666,0.00000061,
 0.00000374,-0.00285879,-0.00045693,0.00144168,0.00000829,0.00005566,-0
 .00000493,0.00000446,-0.00000329,-0.00000284,-0.00000033,-0.00000060,0
 .00000012,-0.00000462,-0.00000285,0.00000303,-0.00000111,-0.00000170,0
 .00000061,0.00000189,-0.00000025,-0.00000084,0.00000193,-0.00000609,-0
 .00000096,-0.00083594,-0.00051534,0.00047633,-0.00000082,0.00000142,0.
 00000047,0.00000417,0.00000037,-0.00000261,-0.00000195,0.00000225,0.00
 000080,-0.00000014,0.00000105,-0.00000005,-0.01140859,0.01120802,0.006
 58593,-0.00155192,-0.00565332,0.00060911,0.00007786,0.00005549,-0.0000
 2307,-0.00000124,-0.00000023,0.00000056,0.00000067,-0.00000047,0.00000
 002,0.00000006,-0.00000024,0.,-0.00000004,0.00000090,-0.00000056,-0.00
 000070,-0.00000019,0.00000031,-0.00000019,0.00000021,0.00000013,-0.000
 00014,-0.00000054,-0.00000005,-0.00000021,-0.00000028,0.00000014,0.000
 00068,0.00000083,-0.00000013,0.00000021,-0.00000023,-0.00000011,-0.000
 00077,0.00000016,0.00000044,0.,0.00000025,-0.00000007,0.00000036,0.000
 00036,0.,0.00000013,0.00000012,-0.00000017,0.00000318,-0.00000054,-0.0
 0000192,-0.00000029,-0.00000076,0.00000018,-0.00000087,-0.00000118,0.0
 0000073,-0.00000096,-0.00000021,0.00000064,0.02389720,-0.01155547,-0.0
 1374568,0.00117163,-0.00072132,-0.00067642,0.11148759,-0.14683086,-0.0
 6497351,0.00025702,0.00073312,-0.00004159,0.00000079,-0.00000055,-0.00
 000039,0.00000084,0.00000030,-0.00000052,0.00000035,0.00000019,-0.0000
 0016,0.00000002,0.00000037,-0.00000003,-0.00000016,0.00000009,0.000000
 10,0.00000002,-0.00000029,-0.00000005,-0.00033568,0.00064307,0.0002827
 7,-0.11922071,0.15264998,-0.00000449,-0.00001316,0.00000276,-0.0000058
 1,-0.00004396,-0.00000239,-0.00000356,-0.00000179,-0.00000051,-0.00000
 256,0.00000392,-0.00000076,0.00000471,0.00001083,-0.00000198,0.0000058
 6,0.00000512,-0.00000457,0.00000058,0.00000205,0.00000163,-0.00000098,
 -0.00000069,0.00000156,0.00000322,-0.00000284,0.00000143,0.00000082,0.
 00000038,0.00000048,0.00001197,0.00002204,-0.00000764,-0.00001204,-0.0
 0002099,0.00000719,-0.00000277,0.00002112,0.00000076,-0.00000734,-0.00
 000785,0.00000498,0.00000074,0.00000575,-0.00000086,0.00000407,-0.0000
 0210,-0.00000166,-0.00000732,0.00000628,0.00000356,0.00001243,-0.00001
 002,-0.00000648,0.00004304,0.00006026,-0.00002627,-0.00001950,-0.00007
 804,0.00003372,0.00000964,0.00007713,-0.00002961,-0.00001975,-0.000160
 78,0.00000881,0.00016698,0.00007814,-0.00015725,-0.00008940,0.00007510
 ,0.00007672,0.00005806,0.00000232,-0.00003584,0.00000075,-0.00002587,0
 .00001410,0.00001863,0.00002392,-0.00001398,-0.00001866,0.00008499,-0.
 00002171,0.00002040,-0.00003987,-0.00002652,0.00000205,0.00000166,-0.0
 0000225,-0.00000730,0.00000151,0.00000161,-0.00000195,0.00000368,0.000
 00031,-0.00002425,0.00005376,0.00001003,-0.00020544,0.00018009,0.00003
 848,-0.00000326,0.00000030,0.00000227,0.00000601,-0.00000892,-0.000003
 05,0.00000092,-0.00000456,0.00000448,0.00000123,-0.00000378,0.00000326
 ,0.00000333,-0.00000199,-0.00000008,-0.00000036,-0.00000091,0.00000065
 ,0.00002333,-0.00004432,-0.00001043,0.00000177,-0.00000078,-0.00000011
 ,0.00079895,-0.00054484,-0.00017638,-0.00000637,-0.00000117,0.00001409
 ,-0.00000349,0.00000970,0.00000169,0.00000065,-0.00000050,0.00000024,0
 .00000253,0.00000050,-0.00000192,0.00000023,0.00000003,0.00000002,-0.0
 0002480,0.00001865,0.00001049,-0.00000959,0.00000286,0.00000986,0.0041
 1855,0.00164146,0.00514780,-0.00002015,-0.00009907,0.00002028,0.000005
 16,-0.00000347,-0.00000279,0.00000076,-0.00000031,0.00000012,-0.000001
 25,-0.00000110,0.00000117,-0.00000027,-0.00000107,0.00000065,0.0000006
 4,-0.00000024,-0.00000044,0.00000401,-0.00000769,-0.00000225,-0.000426
 89,0.00043548,-0.00067040,-0.00000116,0.00000142,0.00000034,0.00000599
 ,-0.00000029,-0.00000318,-0.00000320,0.00000254,0.00000035,0.00000039,
 0.00000147,0.00000107,0.00904683,-0.00852866,-0.00215591,0.00224370,0.
 00026295,0.00565407,-0.00038694,-0.00002608,-0.00070939,-0.00000167,-0
 .00000004,0.00000003,0.00000066,-0.00000044,-0.00000036,0.00000006,-0.
 00000023,0.00000029,-0.00000036,0.00000023,-0.00000043,-0.00000039,-0.
 00000014,-0.00000005,0.00000007,0.00000018,0.00000024,-0.00000019,-0.0
 0000015,-0.00000017,-0.00000006,-0.00000001,0.00000027,0.00000025,0.00
 000032,-0.00000007,0.00000020,-0.00000013,0.00000008,-0.00000140,0.000
 00004,0.00000042,0.00000007,0.00000001,0.00000017,0.00000036,0.0000007
 8,-0.00000065,0.00000084,0.,0.00000022,0.00000455,-0.00000099,-0.00000
 273,0.00000034,-0.00000105,0.00000055,-0.00000131,-0.00000174,0.000000
 85,-0.00000110,-0.00000035,0.00000160,-0.00055123,0.00139031,0.0038025
 0,0.00000031,0.00010869,0.00008350,0.09149490,-0.06472267,-0.08956330,
 -0.00203538,0.00025767,-0.00299361,0.00000102,-0.00000060,-0.00000011,
 0.00000125,0.00000024,-0.00000041,0.00000026,0.00000010,0.,0.00000010,
 0.00000025,0.00000007,0.00000016,0.00000015,0.00000030,-0.00000007,0.,
 0.00000065,-0.00192823,-0.00011913,-0.00276375,-0.10229210,0.06967900,
 0.08442952\\-0.00000078,-0.00000073,0.00000032,0.00000053,0.00000034,-
 0.00000034,0.00000023,-0.00000018,-0.00000017,0.00000033,0.00000030,-0
 .00000018,-0.00000010,-0.00000056,0.00000023,-0.00000009,0.00000028,-0
 .00000009,0.00000011,0.00000002,0.00000012,-0.00000026,0.00000007,-0.0
 0000001,-0.00000031,-0.00000037,0.00000013,0.00000001,0.00000057,-0.00
 000020,-0.00000038,0.00000039,0.00000045,0.00000039,0.00000123,-0.0000
 0028,-0.00000037,-0.00000045,0.00000022,-0.00000085,0.00000012,-0.0000
 0007,-0.00000024,0.00000011,0.00000032,0.00000071,0.00000030,-0.000000
 28,-0.00000055,-0.00000041,0.00000019,0.00000158,0.00000057,-0.0000004
 7,0.00000058,-0.00000044,-0.00000037,0.00000014,0.00000003,0.00000015,
 0.00000053,0.00000006,-0.00000010,-0.00000002,-0.00000068,0.00000018,0
 .00000014,0.00000003,0.00000020,-0.00000066,0.00000034,-0.00000002,0.0
 0000092,0.00000012,0.00000002,-0.00000097,-0.00000030,-0.00000045,0.00
 000051,0.00000023,-0.00000027,-0.00000032,-0.00000002,0.00000020,0.000
 00027,-0.00000049,-0.00000021,0.00000035,0.00000031,-0.00000032,-0.000
 00090,-0.00000075,0.00000047,0.00000034,-0.00000043,-0.00000028,-0.000
 00103,0.00000011,0.00000013,0.00000050,0.00000031,-0.00000028,-0.00000
 113,0.00000056,-0.00000071,0.00000013,0.00000051,-0.00000019,-0.000000
 12,0.00000019,0.00000035,-0.00000026,0.,0.00000021,0.00000008,0.000000
 17,0.00000008,-0.00000004,-0.00000053,-0.00000009,0.00000112,-0.000000
 65,-0.00000052,-0.00000045,0.00000052,-0.00000012,0.00000025,0.0000002
 4,0.00000020,0.00000008,-0.00000019,0.00000005,-0.00000208,0.00000019,
 0.00000145,-0.00000055,-0.00000048,0.00000056,0.00000032,0.00000060,-0
 .00000030,-0.00000028,-0.00000041,-0.00000028,-0.00000144,0.00000077,0
 .00000015,0.00000060,0.00000010,0.00000033,0.00000027,-0.00000016,-0.0
 0000013,0.00000028,-0.00000021,0.00000045,0.00000107,-0.00000224,-0.00
 000032,0.00000027,0.00000069,0.00000002,-0.00000050,-0.00000081,-0.000
 00065,0.00000053,-0.00000046,0.00000090,-0.00000132,0.00000067,-0.0000
 0034,0.00000007,0.00000003,-0.00000064,0.00000031,0.00000002,0.0000002
 2,-0.00000048,0.00000129,0.00000038,0.00000008,-0.00000050,-0.00000015
 ,-0.00000023,0.00000057,0.00000003,0.00000005,-0.00000009,-0.00000022,
 0.00000034,0.00000081,0.00000018,0.00000043,0.00000012,0.00000012,0.00
 000005,0.00000005,0.00000033,0.00000098,0.00000083,-0.00000026,0.00000
 037,-0.00000054,0.,0.00000002,0.00000016,0.00000016,0.00000077,0.00000
 004,0.00000014,0.00000040,-0.00000027,-0.00000060,-0.00000017,-0.00000
 007,-0.00000046,-0.00000089,0.00000003,-0.00000011,0.00000013,0.000000
 06,0.00000008,-0.00000062,0.00000022,-0.00000016,-0.00000033,0.0000001
 3,-0.00000031,-0.00000037,0.00000033,0.00000082,0.00000018,0.00000041,
 0.00000018,0.00000035,-0.00000013,0.00000003,0.00000008,-0.00000080,0.
 00000026,0.00000072,-0.00000080,-0.00000093,-0.00000007,-0.00000021,-0
 .00000030,-0.00000053,0.00000013,0.00000011,0.00000054,-0.00000014,-0.
 00000044,0.00000003,-0.00000008,0.00000039,0.00000018,-0.00000035,0.00
 000029,0.00000008,-0.00000016,0.00000052,0.00000014,-0.00000059,0.0000
 0029,-0.00000039,0.00000042,-0.00000017,0.00000002,0.00000014,-0.00000
 050,0.,0.00000015,-0.00000047,-0.00000017,0.00000021,-0.00000026,0.000
 00021,-0.00000012,0.00000026,0.00000006,-0.00000019,0.00000041,0.00000
 020,-0.00000011,0.00000041,0.00000029,-0.00000016,0.00000033\\\@
 The archive entry for this job was punched.


 MODELS ARE TO BE USED, NOT BELIEVED.

    -- PARAPHRASED BY H. THIEL IN "PRINCIPLES OF ECONOMETRICS"
 Job cpu time:       4 days 18 hours 22 minutes 59.5 seconds.
 Elapsed time:       0 days  1 hours 49 minutes 45.8 seconds.
 File lengths (MBytes):  RWF=  17728 Int=      0 D2E=      0 Chk=    163 Scr=      1
 Normal termination of Gaussian 16 at Thu Oct  5 10:44:07 2023.
