 Entering Gaussian System, Link 0=g16
 Initial command:
 /apps/gent/CO7/haswell-ib/software/Gaussian/g16_C.01-intel-2019a/g16/l1.exe "/tmp/20224533/Gau-31301.inp" -scrdir="/tmp/20224533/"
 Entering Link 1 = /apps/gent/CO7/haswell-ib/software/Gaussian/g16_C.01-intel-2019a/g16/l1.exe.bin PID=     31303.
  
 Copyright (c) 1988-2019, Gaussian, Inc.  All Rights Reserved.
  
 This is part of the Gaussian(R) 16 program.  It is based on
 the Gaussian(R) 09 system (copyright 2009, Gaussian, Inc.),
 the Gaussian(R) 03 system (copyright 2003, Gaussian, Inc.),
 the Gaussian(R) 98 system (copyright 1998, Gaussian, Inc.),
 the Gaussian(R) 94 system (copyright 1995, Gaussian, Inc.),
 the Gaussian 92(TM) system (copyright 1992, Gaussian, Inc.),
 the Gaussian 90(TM) system (copyright 1990, Gaussian, Inc.),
 the Gaussian 88(TM) system (copyright 1988, Gaussian, Inc.),
 the Gaussian 86(TM) system (copyright 1986, Carnegie Mellon
 University), and the Gaussian 82(TM) system (copyright 1983,
 Carnegie Mellon University). Gaussian is a federally registered
 trademark of Gaussian, Inc.
  
 This software contains proprietary and confidential information,
 including trade secrets, belonging to Gaussian, Inc.
  
 This software is provided under written license and may be
 used, copied, transmitted, or stored only in accord with that
 written license.
  
 The following legend is applicable only to US Government
 contracts under FAR:
  
                    RESTRICTED RIGHTS LEGEND
  
 Use, reproduction and disclosure by the US Government is
 subject to restrictions as set forth in subparagraphs (a)
 and (c) of the Commercial Computer Software - Restricted
 Rights clause in FAR 52.227-19.
  
 Gaussian, Inc.
 340 Quinnipiac St., Bldg. 40, Wallingford CT 06492
  
  
 ---------------------------------------------------------------
 Warning -- This program may not be used in any manner that
 competes with the business of Gaussian, Inc. or will provide
 assistance to any competitor of Gaussian, Inc.  The licensee
 of this program is prohibited from giving any competitor of
 Gaussian, Inc. access to this program.  By using this program,
 the user acknowledges that Gaussian, Inc. is engaged in the
 business of creating and licensing software in the field of
 computational chemistry and represents and warrants to the
 licensee that it is not a competitor of Gaussian, Inc. and that
 it will not use this program in any manner prohibited above.
 ---------------------------------------------------------------
  

 Cite this work as:
 Gaussian 16, Revision C.01,
 M. J. Frisch, G. W. Trucks, H. B. Schlegel, G. E. Scuseria, 
 M. A. Robb, J. R. Cheeseman, G. Scalmani, V. Barone, 
 G. A. Petersson, H. Nakatsuji, X. Li, M. Caricato, A. V. Marenich, 
 J. Bloino, B. G. Janesko, R. Gomperts, B. Mennucci, H. P. Hratchian, 
 J. V. Ortiz, A. F. Izmaylov, J. L. Sonnenberg, D. Williams-Young, 
 F. Ding, F. Lipparini, F. Egidi, J. Goings, B. Peng, A. Petrone, 
 T. Henderson, D. Ranasinghe, V. G. Zakrzewski, J. Gao, N. Rega, 
 G. Zheng, W. Liang, M. Hada, M. Ehara, K. Toyota, R. Fukuda, 
 J. Hasegawa, M. Ishida, T. Nakajima, Y. Honda, O. Kitao, H. Nakai, 
 T. Vreven, K. Throssell, J. A. Montgomery, Jr., J. E. Peralta, 
 F. Ogliaro, M. J. Bearpark, J. J. Heyd, E. N. Brothers, K. N. Kudin, 
 V. N. Staroverov, T. A. Keith, R. Kobayashi, J. Normand, 
 K. Raghavachari, A. P. Rendell, J. C. Burant, S. S. Iyengar, 
 J. Tomasi, M. Cossi, J. M. Millam, M. Klene, C. Adamo, R. Cammi, 
 J. W. Ochterski, R. L. Martin, K. Morokuma, O. Farkas, 
 J. B. Foresman, and D. J. Fox, Gaussian, Inc., Wallingford CT, 2019.
 
 ******************************************
 Gaussian 16:  ES64L-G16RevC.01  3-Jul-2019
                25-Jan-2021 
 ******************************************
 %nproc=15
 Will use up to   15 processors via shared memory.
 %mem=70GB
 %chk=TpO_amine_freq.chk
 --------------------------------------------------------------------
 #P B3LYP/6-311++G(d,p) freq(noraman) SCF=YQC EmpiricalDispersion=GD3
 --------------------------------------------------------------------
 1/10=4,30=1,38=1/1,3;
 2/12=2,17=6,18=5,40=1/2;
 3/5=4,6=6,7=1111,11=2,25=1,30=1,71=2,74=-5,124=31,140=1/1,2,3;
 4//1;
 5/5=2,8=4,13=1,38=1,98=1/8,2,8;
 8/6=4,10=90,11=11/1;
 11/6=1,8=1,9=11,15=111,16=1/1,2,10;
 10/6=1/2;
 6/7=2,8=2,9=2,10=2,28=1/1;
 7/8=1,10=1,25=1/1,2,3,16;
 1/10=4,30=1/3;
 99//99;
 Leave Link    1 at Mon Jan 25 12:08:30 2021, MaxMem=  9395240960 cpu:               0.4 elap:               0.0
 (Enter /apps/gent/CO7/haswell-ib/software/Gaussian/g16_C.01-intel-2019a/g16/l101.exe.bin)
 --------------------------------
 Restart from TpO_amine_b3lyp.log
 --------------------------------
 Symbolic Z-matrix:
 Charge =  0 Multiplicity = 1
 C                    -1.39871   0.37364  -0.00032 
 C                    -1.04022  -1.04802  -0.00037 
 C                     0.37597  -1.39778  -0.00028 
 C                     1.42794  -0.37651  -0.00029 
 C                     1.0227    1.0248   -0.00031 
 C                    -0.38772   1.42525  -0.00042 
 O                    -0.71493   2.63434  -0.00055 
 O                     2.63867  -0.69758  -0.00031 
 O                    -1.92369  -1.93595  -0.0004 
 C                     1.9593    2.04478  -0.00025 
 C                     0.7911   -2.71887  -0.00027 
 C                    -2.75038   0.67459  -0.00026 
 N                     3.28177   1.86231  -0.00017 
 H                     1.58107   3.05992  -0.00035 
 N                    -0.028    -3.77307  -0.00037 
 H                     1.85937  -2.89878  -0.00032 
 N                    -3.2539    1.911    -0.00033 
 H                    -3.44026  -0.16065  -0.0003 
 C                     4.2884    2.84403   0.00012 
 H                     3.54824   0.86979  -0.00034 
 C                    -4.60752   2.2915    0.00014 
 H                    -2.52783   2.63827  -0.00085 
 C                     0.31912  -5.13563  -0.00009 
 H                    -1.02083  -3.5078   -0.00077 
 C                     5.61919   2.40506  -0.00195 
 C                    -0.72631  -6.0688   -0.00378 
 C                    -4.89318   3.6634   -0.00431 
 C                     6.66135   3.32525  -0.00175 
 H                     5.82918   1.34081  -0.00376 
 C                     4.01801   4.21819   0.00247 
 C                    -0.45033  -7.43139  -0.00367 
 H                    -1.75302  -5.71865  -0.00684 
 C                     1.64442  -5.58841   0.00389 
 C                    -5.66211   1.36995   0.00505 
 C                    -6.21129   4.10545  -0.00403 
 H                    -4.07672   4.37763  -0.00809 
 C                     5.06989   5.12938   0.00258 
 H                     2.99969   4.58472   0.00436 
 C                     6.39454   4.69381   0.00048 
 H                     7.68523   2.96936  -0.00337 
 C                     0.86833  -7.88446   0.00008 
 H                    -1.2704   -8.14025  -0.00658 
 C                     1.90774  -6.95493   0.00385 
 H                     2.47094  -4.88973   0.00721 
 C                    -6.97729   1.82492   0.00516 
 H                    -5.47005   0.30486   0.00907 
 C                    -7.26283   3.18979   0.00062 
 H                    -6.41534   5.17004  -0.00753 
 H                     4.8482    6.19056   0.00442 
 H                     7.20656   5.41098   0.00062 
 H                     2.93764  -7.2934    0.00695 
 H                     1.08353  -8.94625   0.00015 
 H                    -8.29002   3.53413   0.00082 
 H                    -7.78524   1.1021    0.009 
 
 ITRead=  0  0  0  0  0  0  0  0  0  0  0  0  0  0  0  0  0  0  0  0
 ITRead=  0  0  0  0  0  0  0  0  0  0  0  0  0  0  0  0  0  0  0  0
 ITRead=  0  0  0  0  0  0  0  0  0  0  0  0  0  0
 MicOpt= -1 -1 -1 -1 -1 -1 -1 -1 -1 -1 -1 -1 -1 -1 -1 -1 -1 -1 -1 -1
 MicOpt= -1 -1 -1 -1 -1 -1 -1 -1 -1 -1 -1 -1 -1 -1 -1 -1 -1 -1 -1 -1
 MicOpt= -1 -1 -1 -1 -1 -1 -1 -1 -1 -1 -1 -1 -1 -1
 NAtoms=     54 NQM=       54 NQMF=       0 NMMI=      0 NMMIF=      0
                NMic=       0 NMicF=      0.
                    Isotopes and Nuclear Properties:
 (Nuclear quadrupole moments (NQMom) in fm**2, nuclear magnetic moments (NMagM)
  in nuclear magnetons)

  Atom         1           2           3           4           5           6           7           8           9          10
 IAtWgt=          12          12          12          12          12          12          16          16          16          12
 AtmWgt=  12.0000000  12.0000000  12.0000000  12.0000000  12.0000000  12.0000000  15.9949146  15.9949146  15.9949146  12.0000000
 NucSpn=           0           0           0           0           0           0           0           0           0           0
 AtZEff=   0.0000000   0.0000000   0.0000000   0.0000000   0.0000000   0.0000000   0.0000000   0.0000000   0.0000000   0.0000000
 NQMom=    0.0000000   0.0000000   0.0000000   0.0000000   0.0000000   0.0000000   0.0000000   0.0000000   0.0000000   0.0000000
 NMagM=    0.0000000   0.0000000   0.0000000   0.0000000   0.0000000   0.0000000   0.0000000   0.0000000   0.0000000   0.0000000
 AtZNuc=   6.0000000   6.0000000   6.0000000   6.0000000   6.0000000   6.0000000   8.0000000   8.0000000   8.0000000   6.0000000

  Atom        11          12          13          14          15          16          17          18          19          20
 IAtWgt=          12          12          14           1          14           1          14           1          12           1
 AtmWgt=  12.0000000  12.0000000  14.0030740   1.0078250  14.0030740   1.0078250  14.0030740   1.0078250  12.0000000   1.0078250
 NucSpn=           0           0           2           1           2           1           2           1           0           1
 AtZEff=   0.0000000   0.0000000   0.0000000   0.0000000   0.0000000   0.0000000   0.0000000   0.0000000   0.0000000   0.0000000
 NQMom=    0.0000000   0.0000000   2.0440000   0.0000000   2.0440000   0.0000000   2.0440000   0.0000000   0.0000000   0.0000000
 NMagM=    0.0000000   0.0000000   0.4037610   2.7928460   0.4037610   2.7928460   0.4037610   2.7928460   0.0000000   2.7928460
 AtZNuc=   6.0000000   6.0000000   7.0000000   1.0000000   7.0000000   1.0000000   7.0000000   1.0000000   6.0000000   1.0000000

  Atom        21          22          23          24          25          26          27          28          29          30
 IAtWgt=          12           1          12           1          12          12          12          12           1          12
 AtmWgt=  12.0000000   1.0078250  12.0000000   1.0078250  12.0000000  12.0000000  12.0000000  12.0000000   1.0078250  12.0000000
 NucSpn=           0           1           0           1           0           0           0           0           1           0
 AtZEff=   0.0000000   0.0000000   0.0000000   0.0000000   0.0000000   0.0000000   0.0000000   0.0000000   0.0000000   0.0000000
 NQMom=    0.0000000   0.0000000   0.0000000   0.0000000   0.0000000   0.0000000   0.0000000   0.0000000   0.0000000   0.0000000
 NMagM=    0.0000000   2.7928460   0.0000000   2.7928460   0.0000000   0.0000000   0.0000000   0.0000000   2.7928460   0.0000000
 AtZNuc=   6.0000000   1.0000000   6.0000000   1.0000000   6.0000000   6.0000000   6.0000000   6.0000000   1.0000000   6.0000000

  Atom        31          32          33          34          35          36          37          38          39          40
 IAtWgt=          12           1          12          12          12           1          12           1          12           1
 AtmWgt=  12.0000000   1.0078250  12.0000000  12.0000000  12.0000000   1.0078250  12.0000000   1.0078250  12.0000000   1.0078250
 NucSpn=           0           1           0           0           0           1           0           1           0           1
 AtZEff=   0.0000000   0.0000000   0.0000000   0.0000000   0.0000000   0.0000000   0.0000000   0.0000000   0.0000000   0.0000000
 NQMom=    0.0000000   0.0000000   0.0000000   0.0000000   0.0000000   0.0000000   0.0000000   0.0000000   0.0000000   0.0000000
 NMagM=    0.0000000   2.7928460   0.0000000   0.0000000   0.0000000   2.7928460   0.0000000   2.7928460   0.0000000   2.7928460
 AtZNuc=   6.0000000   1.0000000   6.0000000   6.0000000   6.0000000   1.0000000   6.0000000   1.0000000   6.0000000   1.0000000

  Atom        41          42          43          44          45          46          47          48          49          50
 IAtWgt=          12           1          12           1          12           1          12           1           1           1
 AtmWgt=  12.0000000   1.0078250  12.0000000   1.0078250  12.0000000   1.0078250  12.0000000   1.0078250   1.0078250   1.0078250
 NucSpn=           0           1           0           1           0           1           0           1           1           1
 AtZEff=   0.0000000   0.0000000   0.0000000   0.0000000   0.0000000   0.0000000   0.0000000   0.0000000   0.0000000   0.0000000
 NQMom=    0.0000000   0.0000000   0.0000000   0.0000000   0.0000000   0.0000000   0.0000000   0.0000000   0.0000000   0.0000000
 NMagM=    0.0000000   2.7928460   0.0000000   2.7928460   0.0000000   2.7928460   0.0000000   2.7928460   2.7928460   2.7928460
 AtZNuc=   6.0000000   1.0000000   6.0000000   1.0000000   6.0000000   1.0000000   6.0000000   1.0000000   1.0000000   1.0000000

  Atom        51          52          53          54
 IAtWgt=           1           1           1           1
 AtmWgt=   1.0078250   1.0078250   1.0078250   1.0078250
 NucSpn=           1           1           1           1
 AtZEff=   0.0000000   0.0000000   0.0000000   0.0000000
 NQMom=    0.0000000   0.0000000   0.0000000   0.0000000
 NMagM=    2.7928460   2.7928460   2.7928460   2.7928460
 AtZNuc=   1.0000000   1.0000000   1.0000000   1.0000000
 Leave Link  101 at Mon Jan 25 12:08:30 2021, MaxMem=  9395240960 cpu:               1.4 elap:               0.1
 (Enter /apps/gent/CO7/haswell-ib/software/Gaussian/g16_C.01-intel-2019a/g16/l103.exe.bin)

 GradGradGradGradGradGradGradGradGradGradGradGradGradGradGradGradGradGrad
 Berny optimization.
 Initialization pass.
 Trust Radius=3.00D-01 FncErr=1.00D-07 GrdErr=1.00D-07 EigMax=2.50D+02 EigMin=1.00D-04
 Number of steps in this run=      2 maximum allowed number of steps=      2.
 GradGradGradGradGradGradGradGradGradGradGradGradGradGradGradGradGradGrad

 Leave Link  103 at Mon Jan 25 12:08:31 2021, MaxMem=  9395240960 cpu:               0.2 elap:               0.0
 (Enter /apps/gent/CO7/haswell-ib/software/Gaussian/g16_C.01-intel-2019a/g16/l202.exe.bin)
 Stoichiometry    C27H21N3O3
 Framework group  C1[X(C27H21N3O3)]
 Deg. of freedom   156
 Full point group                 C1      NOp   1
 Largest Abelian subgroup         C1      NOp   1
 Largest concise Abelian subgroup C1      NOp   1
                         Standard orientation:                         
 ---------------------------------------------------------------------
 Center     Atomic      Atomic             Coordinates (Angstroms)
 Number     Number       Type             X           Y           Z
 ---------------------------------------------------------------------
      1          6           0        1.398684   -0.373727   -0.000318
      2          6           0        1.040279    1.047955   -0.000374
      3          6           0       -0.375889    1.397800   -0.000279
      4          6           0       -1.427916    0.376592   -0.000288
      5          6           0       -1.022757   -1.024739   -0.000305
      6          6           0        0.387639   -1.425273   -0.000423
      7          8           0        0.714773   -2.634380   -0.000549
      8          8           0       -2.638628    0.697736   -0.000309
      9          8           0        1.923802    1.935833   -0.000398
     10          6           0       -1.959416   -2.044668   -0.000250
     11          6           0       -0.790939    2.718915   -0.000268
     12          6           0        2.750337   -0.674757   -0.000255
     13          7           0       -3.281876   -1.862117   -0.000170
     14          1           0       -1.581252   -3.059824   -0.000349
     15          7           0        0.028224    3.773063   -0.000374
     16          1           0       -1.859193    2.898885   -0.000323
     17          7           0        3.253788   -1.911197   -0.000327
     18          1           0        3.440267    0.160443   -0.000300
     19          6           0       -4.288564   -2.843777    0.000116
     20          1           0       -3.548292   -0.869580   -0.000336
     21          6           0        4.607387   -2.291777    0.000136
     22          1           0        2.527676   -2.638415   -0.000850
     23          6           0       -0.318817    5.135654   -0.000085
     24          1           0        1.021043    3.507740   -0.000771
     25          6           0       -5.619335   -2.404729   -0.001946
     26          6           0        0.726670    6.068758   -0.003783
     27          6           0        4.892964   -3.663690   -0.004309
     28          6           0       -6.661544   -3.324856   -0.001746
     29          1           0       -5.829257   -1.340460   -0.003758
     30          6           0       -4.018256   -4.217953    0.002473
     31          6           0        0.450767    7.431366   -0.003669
     32          1           0        1.753355    5.718542   -0.006842
     33          6           0       -1.644084    5.588507    0.003886
     34          6           0        5.662030   -1.370285    0.005052
     35          6           0        6.211050   -4.105814   -0.004032
     36          1           0        4.076464   -4.377874   -0.008093
     37          6           0       -5.070194   -5.129074    0.002582
     38          1           0       -2.999965   -4.584542    0.004355
     39          6           0       -6.394816   -4.693435    0.000477
     40          1           0       -7.685407   -2.968900   -0.003367
     41          6           0       -0.867866    7.884513    0.000081
     42          1           0        1.270885    8.140170   -0.006576
     43          6           0       -1.907330    6.955039    0.003854
     44          1           0       -2.470645    4.889874    0.007211
     45          6           0        6.977183   -1.825336    0.005158
     46          1           0        5.470029   -0.305189    0.009069
     47          6           0        7.262637   -3.190222    0.000622
     48          1           0        6.415029   -5.170419   -0.007528
     49          1           0       -4.848566   -6.190268    0.004422
     50          1           0       -7.206885   -5.410548    0.000622
     51          1           0       -2.937206    7.293569    0.006953
     52          1           0       -1.082999    8.946313    0.000150
     53          1           0        8.289813   -3.534624    0.000817
     54          1           0        7.785172   -1.102565    0.008999
 ---------------------------------------------------------------------
 Rotational constants (GHZ):           0.0844898           0.0844744           0.0422411
 Leave Link  202 at Mon Jan 25 12:08:31 2021, MaxMem=  9395240960 cpu:               0.5 elap:               0.1
 (Enter /apps/gent/CO7/haswell-ib/software/Gaussian/g16_C.01-intel-2019a/g16/l301.exe.bin)
 Standard basis: 6-311++G(d,p) (5D, 7F)
 Ernie: Thresh=  0.10000D-02 Tol=  0.10000D-05 Strict=F.
 There are   906 symmetry adapted cartesian basis functions of A   symmetry.
 There are   873 symmetry adapted basis functions of A   symmetry.
   873 basis functions,  1377 primitive gaussians,   906 cartesian basis functions
   114 alpha electrons      114 beta electrons
       nuclear repulsion energy      2888.3885076776 Hartrees.
 IExCor=  402 DFT=T Ex+Corr=B3LYP ExCW=0 ScaHFX=  0.200000
 ScaDFX=  0.800000  0.720000  1.000000  0.810000 ScalE2=  1.000000  1.000000
 IRadAn=      5 IRanWt=     -1 IRanGd=            0 ICorTp=0 IEmpDi=131
 NAtoms=   54 NActive=   54 NUniq=   54 SFac= 1.00D+00 NAtFMM=   60 NAOKFM=F Big=F
 Integral buffers will be    131072 words long.
 Raffenetti 2 integral format.
 Two-electron integral symmetry is turned on.
 R6Disp:  Grimme-D3 Dispersion energy=       -0.0494102656 Hartrees.
 Nuclear repulsion after empirical dispersion term =     2888.3390974120 Hartrees.
 Leave Link  301 at Mon Jan 25 12:08:31 2021, MaxMem=  9395240960 cpu:               0.7 elap:               0.1
 (Enter /apps/gent/CO7/haswell-ib/software/Gaussian/g16_C.01-intel-2019a/g16/l302.exe.bin)
 NPDir=0 NMtPBC=     1 NCelOv=     1 NCel=       1 NClECP=     1 NCelD=      1
         NCelK=      1 NCelE2=     1 NClLst=     1 CellRange=     0.0.
 One-electron integrals computed using PRISM.
 One-electron integral symmetry used in STVInt
 NBasis=   873 RedAO= T EigKep=  1.23D-06  NBF=   873
 NBsUse=   861 1.00D-06 EigRej=  6.98D-07 NBFU=   861
 Precomputing XC quadrature grid using
 IXCGrd= 4 IRadAn=           5 IRanWt=          -1 IRanGd=           0 AccXCQ= 0.00D+00.
 Generated NRdTot=       0 NPtTot=           0 NUsed=           0 NTot=          32
 NSgBfM=   834   834   834   834   834 MxSgAt=    54 MxSgA2=    54.
 Leave Link  302 at Mon Jan 25 12:08:32 2021, MaxMem=  9395240960 cpu:              14.5 elap:               1.2
 (Enter /apps/gent/CO7/haswell-ib/software/Gaussian/g16_C.01-intel-2019a/g16/l303.exe.bin)
 DipDrv:  MaxL=1.
 Leave Link  303 at Mon Jan 25 12:08:32 2021, MaxMem=  9395240960 cpu:               1.8 elap:               0.1
 (Enter /apps/gent/CO7/haswell-ib/software/Gaussian/g16_C.01-intel-2019a/g16/l401.exe.bin)
 ExpMin= 3.60D-02 ExpMax= 8.59D+03 ExpMxC= 1.30D+03 IAcc=3 IRadAn=         5 AccDes= 0.00D+00
 Harris functional with IExCor=  402 and IRadAn=       5 diagonalized for initial guess.
 HarFok:  IExCor=  402 AccDes= 0.00D+00 IRadAn=         5 IDoV= 1 UseB2=F ITyADJ=14
 ICtDFT=  3500011 ScaDFX=  1.000000  1.000000  1.000000  1.000000
 FoFCou: FMM=F IPFlag=           0 FMFlag=      100000 FMFlg1=           0
         NFxFlg=           0 DoJE=T BraDBF=F KetDBF=T FulRan=T
         wScrn=  0.000000 ICntrl=       500 IOpCl=  0 I1Cent=   200000004 NGrid=           0
         NMat0=    1 NMatS0=      1 NMatT0=    0 NMatD0=    1 NMtDS0=    0 NMtDT0=    0
 Petite list used in FoFCou.
 Harris En= -1431.95571408948    
 JPrj=0 DoOrth=F DoCkMO=F.
 Leave Link  401 at Mon Jan 25 12:08:37 2021, MaxMem=  9395240960 cpu:              67.4 elap:               4.6
 (Enter /apps/gent/CO7/haswell-ib/software/Gaussian/g16_C.01-intel-2019a/g16/l508.exe.bin)
 Integral symmetry usage will be decided dynamically.
 Tight linear equation convergence will be used.
 RB3LYP wavefunction.
 Linear searches until partial convergence.
 Full line searches.
 Fock matrices will be formed incrementally for  20 cycles.
 FoFJK:  IHMeth= 1 ICntrl=       0 DoSepK=F KAlg= 0 I1Cent=           0 FoldK=F
 IRaf= 670000000 NMat=       1 IRICut=       1 DoRegI=T DoRafI=F ISym2E= 1 IDoP0=0 IntGTp=1.
 FoFCou: FMM=F IPFlag=           0 FMFlag=      100000 FMFlg1=           0
         NFxFlg=           0 DoJE=F BraDBF=F KetDBF=F FulRan=T
         wScrn=  0.000000 ICntrl=         0 IOpCl=  0 I1Cent=           0 NGrid=           0
         NMat0=    1 NMatS0=      1 NMatT0=    0 NMatD0=    1 NMtDS0=    0 NMtDT0=    0
 Petite list used in FoFCou.
 Iteration   1 EE= -1431.15476694354                                    Grad=1.348D+00 Max rot=    4.1782 deg.
 Gradient too large for Newton-Raphson -- use scaled steepest descent instead.
 Alpha Gap=     0.110 HL deriv= 3.66D-05
     ILin= 1 X=0.000D+00 Y=-1.431154766944D+03 DE= 0.00D+00 F= -3.81D+00
 RMSU=  3.81D-03    CP:  9.55D-01
     ILin= 2 X=3.000D-01 Y=-1.431828932632D+03 DE=-6.74D-01 F= -6.52D-01 OKLS=F
 RMSU=  1.80D-04    CP:  9.48D-01  1.33D+00
     ILin= 3 X=4.000D-01 Y=-1.431839903885D+03 DE=-6.85D-01 F=  4.34D-01
     Accept linear search using points  2 and  3.
     An  expanding polynomial of degree  3 produced  0.3465
 RMSU=  1.29D-07    CP:  9.51D-01  1.15D+00  4.03D-01
 Iteration   2 EE= -1431.84754276054     Delta-E=       -0.692775817001 Grad=4.521D-01 Max rot=    1.1682 deg.
 Gradient too large for Newton-Raphson -- use scaled steepest descent instead.
 Alpha Gap=     0.133 HL deriv= 2.97D-05
     ILin= 1 X=0.000D+00 Y=-1.431847542761D+03 DE= 0.00D+00 F= -2.96D-01
 RMSU=  1.03D-03    CP:  9.41D-01  1.03D+00  1.92D-01 -3.00D+00
     ILin= 2 X=3.000D-01 Y=-1.431904587566D+03 DE=-5.70D-02 F= -8.49D-02 OKLS=F
 RMSU=  6.03D-05    CP:  9.37D-01  9.49D-01  1.66D-01 -3.00D+00  1.66D+00
     ILin= 3 X=5.000D-01 Y=-1.431907659001D+03 DE=-6.01D-02 F=  5.40D-02
     Accept linear search using points  2 and  3.
     An  expanding polynomial of degree  3 produced  0.3954
 RMSU=  4.11D-08    CP:  9.39D-01  9.91D-01  1.68D-01 -3.00D+00  1.32D+00
                    CP:  3.77D-01
 Iteration   3 EE= -1431.90951837307     Delta-E=       -0.061975612532 Grad=2.130D-01 Max rot=    0.6444 deg.
 Gradient too large for Newton-Raphson -- use scaled steepest descent instead.
 Alpha Gap=     0.138 HL deriv= 2.95D-05
     ILin= 1 X=0.000D+00 Y=-1.431909518373D+03 DE= 0.00D+00 F= -5.05D-02
 RMSU=  6.36D-04    CP:  9.32D-01  9.51D-01 -3.99D-02 -3.00D+00  1.86D+00
                    CP: -7.55D-01 -3.00D+00
     ILin= 2 X=4.000D-01 Y=-1.431921023140D+03 DE=-1.15D-02 F= -6.99D-03 OKLS=F
 RMSU=  3.51D-05    CP:  9.28D-01  9.22D-01 -9.29D-02 -3.00D+00  2.26D+00
                    CP: -1.30D+00 -3.00D+00  1.73D+00
     ILin= 3 X=7.000D-01 Y=-1.431918203447D+03 DE=-8.69D-03 F=  2.58D-02
     An  expanding polynomial of degree  3 produced  0.4638
 RMSU=  8.39D-09    CP:  9.31D-01  9.45D-01 -5.85D-02 -3.00D+00  1.95D+00
                    CP: -8.93D-01 -3.00D+00  1.16D+00  1.41D-01
 Iteration   4 EE= -1431.92124677836     Delta-E=       -0.011728405281 Grad=1.102D-01 Max rot=    0.3321 deg.
 Gradient too large for Newton-Raphson -- use scaled steepest descent instead.
 Alpha Gap=     0.136 HL deriv= 9.01D-06
     ILin= 1 X=0.000D+00 Y=-1.431921246778D+03 DE= 0.00D+00 F= -1.42D-02
 RMSU=  1.73D-04    CP:  9.19D-01  8.81D-01 -4.00D-01 -3.00D+00  2.26D+00
                    CP: -5.58D-01 -3.00D+00  1.23D+00  2.55D-01 -3.00D+00
     ILin= 2 X=4.000D-01 Y=-1.431924036962D+03 DE=-2.79D-03 F=  2.64D-04 OKLS=F
 RMSU=  1.08D-05    CP:  9.05D-01  8.03D-01 -7.73D-01 -3.00D+00  2.64D+00
                    CP:  2.66D-01 -3.00D+00  1.31D+00  5.22D-01 -3.00D+00
                    CP:  2.23D+00
     ILin= 3 X=9.000D-01 Y=-1.431919408632D+03 DE= 1.84D-03 F=  1.82D-02
     An  expanding polynomial of degree  3 produced  0.3934
     Minimum is close to point  2 DX= -6.62D-03 DF= -7.91D-07 DXR=  1.68D-02 DFR=  2.83D-04 which will be used.
 Iteration   5 EE= -1431.92403696237     Delta-E=       -0.002790184012 Grad=5.822D-02 Max rot=    0.2192 deg.
 Gradient too large for Newton-Raphson -- use scaled steepest descent instead.
 Alpha Gap=     0.138 HL deriv= 7.07D-06
     ILin= 1 X=0.000D+00 Y=-1.431924036962D+03 DE= 0.00D+00 F= -3.32D-03
 RMSU=  5.15D-05    CP:  9.11D-01  8.65D-01 -6.87D-01 -3.00D+00  2.39D+00
                    CP: -5.70D-01 -3.00D+00  1.47D+00  7.77D-01 -3.00D+00
                    CP:  1.50D+00  1.57D+00
     ILin= 2 X=4.000D-01 Y=-1.431924779056D+03 DE=-7.42D-04 F= -3.84D-04 OKLS=F
 RMSU=  8.04D-06    CP:  9.01D-01  8.45D-01 -1.02D+00 -3.00D+00  2.55D+00
                    CP: -4.99D-01 -3.00D+00  1.77D+00  1.63D+00 -3.00D+00
                    CP:  2.11D+00  3.00D+00  2.24D+00
     ILin= 3 X=9.000D-01 Y=-1.431924049322D+03 DE=-1.24D-05 F=  3.31D-03
     An  expanding polynomial of degree  3 produced  0.4519
 RMSU=  1.02D-07    CP:  9.10D-01  8.63D-01 -7.23D-01 -3.00D+00  2.41D+00
                    CP: -5.67D-01 -3.00D+00  1.50D+00  8.55D-01 -3.00D+00
                    CP:  1.56D+00  1.79D+00  1.13D+00  3.26D-03
 Iteration   6 EE= -1431.92478906762     Delta-E=       -0.000752105254 Grad=3.224D-02 Max rot=    0.1160 deg.
 Gradient too large for Newton-Raphson -- use scaled steepest descent instead.
 Alpha Gap=     0.137 HL deriv= 1.03D-06
     ILin= 1 X=0.000D+00 Y=-1.431924789068D+03 DE= 0.00D+00 F= -1.09D-03
 RMSU=  1.95D-05    CP:  9.04D-01  8.43D-01 -8.67D-01 -3.00D+00  2.49D+00
                    CP: -3.56D-01 -3.00D+00  1.50D+00  8.94D-01 -3.00D+00
                    CP:  2.07D+00  2.53D+00  1.43D+00 -9.52D-03 -2.90D+00
     ILin= 2 X=4.000D-01 Y=-1.431925013770D+03 DE=-2.25D-04 F= -3.39D-05 OKLS=F
 RMSU=  1.29D-06    CP:  8.98D-01  8.23D-01 -1.01D+00 -3.00D+00  2.57D+00
                    CP: -1.14D-01 -3.00D+00  1.50D+00  9.42D-01 -3.00D+00
                    CP:  2.57D+00  3.00D+00  1.72D+00  4.73D-01 -3.00D+00
                    CP:  1.99D+00
     ILin= 3 X=8.000D-01 Y=-1.431924816501D+03 DE=-2.74D-05 F=  1.02D-03
     An  expanding polynomial of degree  3 produced  0.4130
     Minimum is close to point  2 DX=  1.30D-02 DF= -2.23D-07 DXR=  3.15D-02 DFR=  9.92D-04 which will be used.
 Iteration   7 EE= -1431.92501376986     Delta-E=       -0.000224702239 Grad=1.804D-02 Max rot=    0.0714 deg.
 Gradient too large for Newton-Raphson -- use scaled steepest descent instead.
 Alpha Gap=     0.137 HL deriv= 1.80D-06
     ILin= 1 X=0.000D+00 Y=-1.431925013770D+03 DE= 0.00D+00 F= -3.00D-04
 RMSU=  5.12D-06    CP:  9.00D-01  8.35D-01 -1.00D+00 -3.00D+00  2.53D+00
                    CP: -2.63D-01 -3.00D+00  1.56D+00  1.10D+00 -3.00D+00
                    CP:  2.33D+00  3.00D+00  1.98D+00  7.30D-01 -3.00D+00
                    CP:  1.24D+00  7.73D-01
     ILin= 2 X=4.000D-01 Y=-1.431925084603D+03 DE=-7.08D-05 F= -5.44D-05 OKLS=F
 RMSU=  3.67D-07    CP:  8.95D-01  8.26D-01 -1.17D+00 -3.00D+00  2.58D+00
                    CP: -1.35D-01 -3.00D+00  1.63D+00  1.37D+00 -3.00D+00
                    CP:  2.66D+00  3.00D+00  2.67D+00  2.47D+00 -3.00D+00
                    CP:  1.55D+00  2.74D+00  2.26D+00
     ILin= 3 X=9.000D-01 Y=-1.431925035020D+03 DE=-2.13D-05 F=  2.53D-04
     An  expanding polynomial of degree  3 produced  0.4885
 RMSU=  1.27D-08    CP:  8.99D-01  8.34D-01 -1.03D+00 -3.00D+00  2.54D+00
                    CP: -2.42D-01 -3.00D+00  1.57D+00  1.14D+00 -3.00D+00
                    CP:  2.39D+00  3.00D+00  2.10D+00  1.03D+00 -3.00D+00
                    CP:  1.30D+00  1.13D+00  1.22D+00  2.15D-01
 Iteration   8 EE= -1431.92508701010     Delta-E=       -0.000073240237 Grad=1.002D-02 Max rot=    0.0364 deg.
 Gradient too large for Newton-Raphson -- use scaled steepest descent instead.
 Alpha Gap=     0.137 HL deriv= 1.98D-07
     ILin= 1 X=0.000D+00 Y=-1.431925087010D+03 DE= 0.00D+00 F= -1.25D-04
 Restarting incremental Fock formation.
     ILin= 2 X=4.000D-01 Y=-1.431925111446D+03 DE=-2.44D-05 F=  3.10D-06 OKLS=T
     Accept linear search using points  1 and  2.
     An  expanding polynomial of degree  2 produced  0.2488
 RMSU=  2.08D-05    CP:  1.00D+00
 Iteration   9 EE= -1431.92510824583     Delta-E=       -0.000021235734 Grad=6.467D-03 Max rot=    0.0270 deg.
 SCF Done:  E(RB3LYP) =  -1431.92510825     a.u. after    9 cycles
            Convg  =    0.6467D-02                    22 Fock formations.
              S**2 =  0.0000                  -V/T =  2.0043
 Leave Link  508 at Mon Jan 25 12:18:30 2021, MaxMem=  9395240960 cpu:            8880.2 elap:             593.1
 (Enter /apps/gent/CO7/haswell-ib/software/Gaussian/g16_C.01-intel-2019a/g16/l502.exe.bin)
 Integral symmetry usage will be decided dynamically.
 Closed shell SCF:
 Using DIIS extrapolation, IDIIS=  1040.
 NGot=  9395240960 LenX=  9393576112 LenY=  9392754370
 Requested convergence on RMS density matrix=1.00D-08 within  32 cycles.
 Requested convergence on MAX density matrix=1.00D-06.
 Requested convergence on             energy=1.00D-06.
 No special actions if energy rises.
 Fock matrices will be formed incrementally for  20 cycles.

 Cycle   1  Pass 1  IDiag  1:
 FoFJK:  IHMeth= 1 ICntrl=       0 DoSepK=F KAlg= 0 I1Cent=           0 FoldK=F
 IRaf= 670000000 NMat=       1 IRICut=       1 DoRegI=T DoRafI=F ISym2E= 0 IDoP0=0 IntGTp=1.
 FoFCou: FMM=F IPFlag=           0 FMFlag=      100000 FMFlg1=           0
         NFxFlg=           0 DoJE=F BraDBF=F KetDBF=F FulRan=T
         wScrn=  0.000000 ICntrl=         0 IOpCl=  0 I1Cent=           0 NGrid=           0
         NMat0=    1 NMatS0=      1 NMatT0=    0 NMatD0=    1 NMtDS0=    0 NMtDT0=    0
 Symmetry not used in FoFCou.
 E= -1431.92510824583    
 DIIS: error= 1.39D-04 at cycle   1 NSaved=   1.
 NSaved= 1 IEnMin= 1 EnMin= -1431.92510824583     IErMin= 1 ErrMin= 1.39D-04
 ErrMax= 1.39D-04  0.00D+00 EMaxC= 1.00D-01 BMatC= 2.09D-05 BMatP= 2.09D-05
 IDIUse=3 WtCom= 9.99D-01 WtEn= 1.39D-03
 Coeff-Com:  0.100D+01
 Coeff-En:   0.100D+01
 Coeff:      0.100D+01
 Gap=     0.137 Goal=   None    Shift=    0.000
 RMSDP=1.97D-04 MaxDP=2.02D-02              OVMax= 1.87D-03

 Cycle   2  Pass 1  IDiag  1:
 RMSU=  1.06D-04    CP:  9.95D-01
 E= -1431.92512472523     Delta-E=       -0.000016479396 Rises=F Damp=F
 DIIS: error= 4.90D-05 at cycle   2 NSaved=   2.
 NSaved= 2 IEnMin= 2 EnMin= -1431.92512472523     IErMin= 2 ErrMin= 4.90D-05
 ErrMax= 4.90D-05  0.00D+00 EMaxC= 1.00D-01 BMatC= 4.74D-07 BMatP= 2.09D-05
 IDIUse=1 WtCom= 1.00D+00 WtEn= 0.00D+00
 Coeff-Com:  0.186D-01 0.981D+00
 Coeff:      0.186D-01 0.981D+00
 Gap=     0.129 Goal=   None    Shift=    0.000
 RMSDP=1.95D-05 MaxDP=2.00D-03 DE=-1.65D-05 OVMax= 4.05D-04

 Cycle   3  Pass 1  IDiag  1:
 RMSU=  9.31D-06    CP:  9.94D-01  1.05D+00
 E= -1431.92512369699     Delta-E=        0.000001028238 Rises=F Damp=F
 DIIS: error= 1.02D-04 at cycle   3 NSaved=   3.
 NSaved= 3 IEnMin= 2 EnMin= -1431.92512472523     IErMin= 2 ErrMin= 4.90D-05
 ErrMax= 1.02D-04  0.00D+00 EMaxC= 1.00D-01 BMatC= 1.99D-06 BMatP= 4.74D-07
 IDIUse=3 WtCom= 4.97D-01 WtEn= 5.03D-01
 Coeff-Com: -0.808D-02 0.687D+00 0.321D+00
 Coeff-En:   0.000D+00 0.730D+00 0.270D+00
 Coeff:     -0.401D-02 0.709D+00 0.295D+00
 Gap=     0.129 Goal=   None    Shift=    0.000
 RMSDP=5.53D-06 MaxDP=2.55D-04 DE= 1.03D-06 OVMax= 2.21D-04

 Cycle   4  Pass 1  IDiag  1:
 RMSU=  5.16D-06    CP:  9.94D-01  1.05D+00  7.98D-01
 E= -1431.92512527842     Delta-E=       -0.000001581429 Rises=F Damp=F
 DIIS: error= 3.24D-06 at cycle   4 NSaved=   4.
 NSaved= 4 IEnMin= 4 EnMin= -1431.92512527842     IErMin= 4 ErrMin= 3.24D-06
 ErrMax= 3.24D-06  0.00D+00 EMaxC= 1.00D-01 BMatC= 5.06D-09 BMatP= 4.74D-07
 IDIUse=1 WtCom= 1.00D+00 WtEn= 0.00D+00
 Coeff-Com: -0.446D-02 0.567D-01 0.244D-01 0.923D+00
 Coeff:     -0.446D-02 0.567D-01 0.244D-01 0.923D+00
 Gap=     0.129 Goal=   None    Shift=    0.000
 RMSDP=1.02D-06 MaxDP=6.05D-05 DE=-1.58D-06 OVMax= 3.39D-05

 Cycle   5  Pass 1  IDiag  1:
 RMSU=  7.41D-07    CP:  9.94D-01  1.05D+00  8.51D-01  1.03D+00
 E= -1431.92512527820     Delta-E=        0.000000000226 Rises=F Damp=F
 DIIS: error= 5.71D-06 at cycle   5 NSaved=   5.
 NSaved= 5 IEnMin= 4 EnMin= -1431.92512527842     IErMin= 4 ErrMin= 3.24D-06
 ErrMax= 5.71D-06  0.00D+00 EMaxC= 1.00D-01 BMatC= 7.94D-09 BMatP= 5.06D-09
 IDIUse=1 WtCom= 1.00D+00 WtEn= 0.00D+00
 Coeff-Com: -0.172D-02-0.651D-02-0.535D-02 0.579D+00 0.435D+00
 Coeff:     -0.172D-02-0.651D-02-0.535D-02 0.579D+00 0.435D+00
 Gap=     0.129 Goal=   None    Shift=    0.000
 RMSDP=5.13D-07 MaxDP=3.89D-05 DE= 2.26D-10 OVMax= 3.08D-05

 Cycle   6  Pass 1  IDiag  1:
 RMSU=  3.25D-07    CP:  9.94D-01  1.05D+00  8.35D-01  1.06D+00  8.30D-01
 E= -1431.92512528560     Delta-E=       -0.000000007401 Rises=F Damp=F
 DIIS: error= 1.63D-06 at cycle   6 NSaved=   6.
 NSaved= 6 IEnMin= 6 EnMin= -1431.92512528560     IErMin= 6 ErrMin= 1.63D-06
 ErrMax= 1.63D-06  0.00D+00 EMaxC= 1.00D-01 BMatC= 9.06D-10 BMatP= 5.06D-09
 IDIUse=1 WtCom= 1.00D+00 WtEn= 0.00D+00
 Coeff-Com: -0.186D-03-0.153D-01-0.971D-02 0.113D+00 0.271D+00 0.641D+00
 Coeff:     -0.186D-03-0.153D-01-0.971D-02 0.113D+00 0.271D+00 0.641D+00
 Gap=     0.129 Goal=   None    Shift=    0.000
 RMSDP=3.17D-07 MaxDP=2.80D-05 DE=-7.40D-09 OVMax= 7.46D-06

 Cycle   7  Pass 1  IDiag  1:
 RMSU=  1.01D-07    CP:  9.94D-01  1.05D+00  8.55D-01  1.07D+00  8.95D-01
                    CP:  7.45D-01
 E= -1431.92512528620     Delta-E=       -0.000000000607 Rises=F Damp=F
 DIIS: error= 5.51D-07 at cycle   7 NSaved=   7.
 NSaved= 7 IEnMin= 7 EnMin= -1431.92512528620     IErMin= 7 ErrMin= 5.51D-07
 ErrMax= 5.51D-07  0.00D+00 EMaxC= 1.00D-01 BMatC= 8.22D-11 BMatP= 9.06D-10
 IDIUse=1 WtCom= 1.00D+00 WtEn= 0.00D+00
 Coeff-Com:  0.505D-04-0.912D-02-0.626D-02 0.232D-01 0.130D+00 0.356D+00
 Coeff-Com:  0.506D+00
 Coeff:      0.505D-04-0.912D-02-0.626D-02 0.232D-01 0.130D+00 0.356D+00
 Coeff:      0.506D+00
 Gap=     0.129 Goal=   None    Shift=    0.000
 RMSDP=5.82D-08 MaxDP=6.25D-06 DE=-6.07D-10 OVMax= 3.96D-06

 Cycle   8  Pass 1  IDiag  1:
 RMSU=  2.89D-08    CP:  9.94D-01  1.05D+00  8.55D-01  1.08D+00  8.86D-01
                    CP:  7.58D-01  7.19D-01
 E= -1431.92512528625     Delta-E=       -0.000000000043 Rises=F Damp=F
 DIIS: error= 1.64D-07 at cycle   8 NSaved=   8.
 NSaved= 8 IEnMin= 8 EnMin= -1431.92512528625     IErMin= 8 ErrMin= 1.64D-07
 ErrMax= 1.64D-07  0.00D+00 EMaxC= 1.00D-01 BMatC= 8.48D-12 BMatP= 8.22D-11
 IDIUse=1 WtCom= 1.00D+00 WtEn= 0.00D+00
 Coeff-Com:  0.532D-04-0.252D-02-0.196D-02-0.592D-02 0.287D-01 0.793D-01
 Coeff-Com:  0.271D+00 0.631D+00
 Coeff:      0.532D-04-0.252D-02-0.196D-02-0.592D-02 0.287D-01 0.793D-01
 Coeff:      0.271D+00 0.631D+00
 Gap=     0.129 Goal=   None    Shift=    0.000
 RMSDP=1.86D-08 MaxDP=1.32D-06 DE=-4.27D-11 OVMax= 8.13D-07

 Cycle   9  Pass 1  IDiag  1:
 RMSU=  9.32D-09    CP:  9.94D-01  1.05D+00  8.55D-01  1.08D+00  8.91D-01
                    CP:  7.56D-01  7.76D-01  8.16D-01
 E= -1431.92512528636     Delta-E=       -0.000000000111 Rises=F Damp=F
 DIIS: error= 5.13D-08 at cycle   9 NSaved=   9.
 NSaved= 9 IEnMin= 9 EnMin= -1431.92512528636     IErMin= 9 ErrMin= 5.13D-08
 ErrMax= 5.13D-08  0.00D+00 EMaxC= 1.00D-01 BMatC= 1.18D-12 BMatP= 8.48D-12
 IDIUse=1 WtCom= 1.00D+00 WtEn= 0.00D+00
 Coeff-Com:  0.267D-04-0.614D-03-0.507D-03-0.348D-02 0.549D-02 0.116D-01
 Coeff-Com:  0.108D+00 0.362D+00 0.518D+00
 Coeff:      0.267D-04-0.614D-03-0.507D-03-0.348D-02 0.549D-02 0.116D-01
 Coeff:      0.108D+00 0.362D+00 0.518D+00
 Gap=     0.129 Goal=   None    Shift=    0.000
 RMSDP=6.41D-09 MaxDP=6.88D-07 DE=-1.11D-10 OVMax= 2.77D-07

 SCF Done:  E(RB3LYP) =  -1431.92512529     A.U. after    9 cycles
            NFock=  9  Conv=0.64D-08     -V/T= 2.0043
 KE= 1.425839762349D+03 PE=-9.110949549987D+03 EE= 3.364845564940D+03
 Leave Link  502 at Mon Jan 25 12:22:29 2021, MaxMem=  9395240960 cpu:            3576.1 elap:             238.9
 (Enter /apps/gent/CO7/haswell-ib/software/Gaussian/g16_C.01-intel-2019a/g16/l508.exe.bin)
 QCSCF skips out because SCF is already converged.
 Leave Link  508 at Mon Jan 25 12:22:29 2021, MaxMem=  9395240960 cpu:               0.0 elap:               0.0
 (Enter /apps/gent/CO7/haswell-ib/software/Gaussian/g16_C.01-intel-2019a/g16/l801.exe.bin)
 DoSCS=F DFT=T ScalE2(SS,OS)=  1.000000  1.000000
 Range of M.O.s used for correlation:     1   861
 NBasis=   873 NAE=   114 NBE=   114 NFC=     0 NFV=     0
 NROrb=    861 NOA=   114 NOB=   114 NVA=   747 NVB=   747

 **** Warning!!: The largest alpha MO coefficient is  0.10802616D+03

 Leave Link  801 at Mon Jan 25 12:22:29 2021, MaxMem=  9395240960 cpu:               0.3 elap:               0.0
 (Enter /apps/gent/CO7/haswell-ib/software/Gaussian/g16_C.01-intel-2019a/g16/l1101.exe.bin)
 Using compressed storage, NAtomX=    54.
 Will process     55 centers per pass.
 R6Disp: Adding Grimme-D3 dispersion energy 1st derivatives to the gradient.
 Leave Link 1101 at Mon Jan 25 12:22:31 2021, MaxMem=  9395240960 cpu:              31.9 elap:               2.6
 (Enter /apps/gent/CO7/haswell-ib/software/Gaussian/g16_C.01-intel-2019a/g16/l1102.exe.bin)
 Symmetrizing basis deriv contribution to polar:
 IMax=3 JMax=2 DiffMx= 0.00D+00
 Leave Link 1102 at Mon Jan 25 12:22:32 2021, MaxMem=  9395240960 cpu:               1.7 elap:               0.1
 (Enter /apps/gent/CO7/haswell-ib/software/Gaussian/g16_C.01-intel-2019a/g16/l1110.exe.bin)
 Forming Gx(P) for the SCF density, NAtomX=    54.
 Integral derivatives from FoFJK, PRISM(SPDF).
 Do as many integral derivatives as possible in FoFJK.
 G2DrvN: MDV=    9395235370.
 G2DrvN: will do    55 centers at a time, making    1 passes.
 Calling FoFCou, ICntrl=  3107 FMM=F I1Cent=   0 AccDes= 0.00D+00.
 FoFJK:  IHMeth= 1 ICntrl=    3107 DoSepK=F KAlg= 0 I1Cent=           0 FoldK=F
 IRaf=         0 NMat=       1 IRICut=       1 DoRegI=T DoRafI=F ISym2E= 0 IDoP0=0 IntGTp=1.
 FoFCou: FMM=F IPFlag=           0 FMFlag=      100000 FMFlg1=           0
         NFxFlg=           0 DoJE=F BraDBF=F KetDBF=F FulRan=T
         wScrn=  0.000000 ICntrl=      3107 IOpCl=  0 I1Cent=           0 NGrid=           0
         NMat0=    1 NMatS0=      1 NMatT0=    0 NMatD0=    1 NMtDS0=    0 NMtDT0=    0
 Symmetry not used in FoFCou.
 End of G2Drv F.D. properties file   721 does not exist.
 End of G2Drv F.D. properties file   722 does not exist.
 End of G2Drv F.D. properties file   788 does not exist.
 Leave Link 1110 at Mon Jan 25 12:34:55 2021, MaxMem=  9395240960 cpu:           11001.9 elap:             743.5
 (Enter /apps/gent/CO7/haswell-ib/software/Gaussian/g16_C.01-intel-2019a/g16/l1002.exe.bin)
 Minotr:  Closed shell wavefunction.
          IDoAtm=11111111111111111111111111111111111111111111111111
          IDoAtm=1111
          Direct CPHF calculation.
          Differentiating once with respect to electric field.
                with respect to dipole field.
          Differentiating once with respect to nuclear coordinates.
          Requested convergence is 1.0D-08 RMS, and 1.0D-07 maximum.
          Secondary convergence is 1.0D-12 RMS, and 1.0D-12 maximum.
          NewPWx=T KeepS1=F KeepF1=F KeepIn=T MapXYZ=F SortEE=F KeepMc=T.
        16975 words used for storage of precomputed grid.
 Two-electron integrals replicated using symmetry.
          MDV=    9395240960 using IRadAn=       1.
          Solving linear equations simultaneously, MaxMat=     375.
 FoF2E skips out because all densities are zero.
 CalDSu exits because no D1Ps are significant.
 FoFJK:  IHMeth= 1 ICntrl=       0 DoSepK=F KAlg= 0 I1Cent=           0 FoldK=F
 IRaf= 670000000 NMat=     162 IRICut=     405 DoRegI=T DoRafI=T ISym2E= 2 IDoP0=3 IntGTp=3.
 FoFCou: FMM=F IPFlag=           0 FMFlag=      100000 FMFlg1=           0
         NFxFlg=           0 DoJE=F BraDBF=F KetDBF=F FulRan=T
         wScrn=  0.000000 ICntrl=         0 IOpCl=  0 I1Cent=           0 NGrid=           0
         NMat0=  162 NMatS0=    162 NMatT0=    0 NMatD0=  162 NMtDS0=    0 NMtDT0=    0
 Integrals replicated using symmetry in FoFCou.
 Raff kept on since  65.14% of shell-pairs survive, threshold=   0.20 IRatSp=65.
          There are   165 degrees of freedom in the 1st order CPHF.  IDoFFX=6 NUNeed=     3.
    162 vectors produced by pass  0 Test12= 8.52D-14 1.00D-09 XBig12= 9.54D+02 1.33D+01.
 AX will form   162 AO Fock derivatives at one time.
    162 vectors produced by pass  1 Test12= 8.52D-14 1.00D-09 XBig12= 1.86D+02 2.52D+00.
    162 vectors produced by pass  2 Test12= 8.52D-14 1.00D-09 XBig12= 1.34D+00 1.04D-01.
    162 vectors produced by pass  3 Test12= 8.52D-14 1.00D-09 XBig12= 5.10D-03 5.14D-03.
    162 vectors produced by pass  4 Test12= 8.52D-14 1.00D-09 XBig12= 1.70D-05 2.79D-04.
    154 vectors produced by pass  5 Test12= 8.52D-14 1.00D-09 XBig12= 2.58D-08 9.18D-06.
     63 vectors produced by pass  6 Test12= 8.52D-14 1.00D-09 XBig12= 3.61D-11 3.81D-07.
      3 vectors produced by pass  7 Test12= 8.52D-14 1.00D-09 XBig12= 5.11D-14 1.51D-08.
      1 vectors produced by pass  8 Test12= 8.52D-14 1.00D-09 XBig12= 1.05D-16 1.01D-09.
 InvSVY:  IOpt=1 It=  1 EMax= 1.07D-14
 Solved reduced A of dimension  1031 with   165 vectors.
 FullF1:  Do perturbations      1 to       3.
 Isotropic polarizability for W=    0.000000      472.23 Bohr**3.
 End of Minotr F.D. properties file   721 does not exist.
 End of Minotr F.D. properties file   722 does not exist.
 End of Minotr F.D. properties file   788 does not exist.
 Leave Link 1002 at Mon Jan 25 13:52:49 2021, MaxMem=  9395240960 cpu:           69663.3 elap:            4673.8
 (Enter /apps/gent/CO7/haswell-ib/software/Gaussian/g16_C.01-intel-2019a/g16/l601.exe.bin)
 Copying SCF densities to generalized density rwf, IOpCl= 0 IROHF=0.

 **********************************************************************

            Population analysis using the SCF Density.

 **********************************************************************

 Orbital symmetries:
       Occupied  (A) (A) (A) (A) (A) (A) (A) (A) (A) (A) (A) (A)
                 (A) (A) (A) (A) (A) (A) (A) (A) (A) (A) (A) (A)
                 (A) (A) (A) (A) (A) (A) (A) (A) (A) (A) (A) (A)
                 (A) (A) (A) (A) (A) (A) (A) (A) (A) (A) (A) (A)
                 (A) (A) (A) (A) (A) (A) (A) (A) (A) (A) (A) (A)
                 (A) (A) (A) (A) (A) (A) (A) (A) (A) (A) (A) (A)
                 (A) (A) (A) (A) (A) (A) (A) (A) (A) (A) (A) (A)
                 (A) (A) (A) (A) (A) (A) (A) (A) (A) (A) (A) (A)
                 (A) (A) (A) (A) (A) (A) (A) (A) (A) (A) (A) (A)
                 (A) (A) (A) (A) (A) (A)
       Virtual   (A) (A) (A) (A) (A) (A) (A) (A) (A) (A) (A) (A)
                 (A) (A) (A) (A) (A) (A) (A) (A) (A) (A) (A) (A)
                 (A) (A) (A) (A) (A) (A) (A) (A) (A) (A) (A) (A)
                 (A) (A) (A) (A) (A) (A) (A) (A) (A) (A) (A) (A)
                 (A) (A) (A) (A) (A) (A) (A) (A) (A) (A) (A) (A)
                 (A) (A) (A) (A) (A) (A) (A) (A) (A) (A) (A) (A)
                 (A) (A) (A) (A) (A) (A) (A) (A) (A) (A) (A) (A)
                 (A) (A) (A) (A) (A) (A) (A) (A) (A) (A) (A) (A)
                 (A) (A) (A) (A) (A) (A) (A) (A) (A) (A) (A) (A)
                 (A) (A) (A) (A) (A) (A) (A) (A) (A) (A) (A) (A)
                 (A) (A) (A) (A) (A) (A) (A) (A) (A) (A) (A) (A)
                 (A) (A) (A) (A) (A) (A) (A) (A) (A) (A) (A) (A)
                 (A) (A) (A) (A) (A) (A) (A) (A) (A) (A) (A) (A)
                 (A) (A) (A) (A) (A) (A) (A) (A) (A) (A) (A) (A)
                 (A) (A) (A) (A) (A) (A) (A) (A) (A) (A) (A) (A)
                 (A) (A) (A) (A) (A) (A) (A) (A) (A) (A) (A) (A)
                 (A) (A) (A) (A) (A) (A) (A) (A) (A) (A) (A) (A)
                 (A) (A) (A) (A) (A) (A) (A) (A) (A) (A) (A) (A)
                 (A) (A) (A) (A) (A) (A) (A) (A) (A) (A) (A) (A)
                 (A) (A) (A) (A) (A) (A) (A) (A) (A) (A) (A) (A)
                 (A) (A) (A) (A) (A) (A) (A) (A) (A) (A) (A) (A)
                 (A) (A) (A) (A) (A) (A) (A) (A) (A) (A) (A) (A)
                 (A) (A) (A) (A) (A) (A) (A) (A) (A) (A) (A) (A)
                 (A) (A) (A) (A) (A) (A) (A) (A) (A) (A) (A) (A)
                 (A) (A) (A) (A) (A) (A) (A) (A) (A) (A) (A) (A)
                 (A) (A) (A) (A) (A) (A) (A) (A) (A) (A) (A) (A)
                 (A) (A) (A) (A) (A) (A) (A) (A) (A) (A) (A) (A)
                 (A) (A) (A) (A) (A) (A) (A) (A) (A) (A) (A) (A)
                 (A) (A) (A) (A) (A) (A) (A) (A) (A) (A) (A) (A)
                 (A) (A) (A) (A) (A) (A) (A) (A) (A) (A) (A) (A)
                 (A) (A) (A) (A) (A) (A) (A) (A) (A) (A) (A) (A)
                 (A) (A) (A) (A) (A) (A) (A) (A) (A) (A) (A) (A)
                 (A) (A) (A) (A) (A) (A) (A) (A) (A) (A) (A) (A)
                 (A) (A) (A) (A) (A) (A) (A) (A) (A) (A) (A) (A)
                 (A) (A) (A) (A) (A) (A) (A) (A) (A) (A) (A) (A)
                 (A) (A) (A) (A) (A) (A) (A) (A) (A) (A) (A) (A)
                 (A) (A) (A) (A) (A) (A) (A) (A) (A) (A) (A) (A)
                 (A) (A) (A) (A) (A) (A) (A) (A) (A) (A) (A) (A)
                 (A) (A) (A) (A) (A) (A) (A) (A) (A) (A) (A) (A)
                 (A) (A) (A) (A) (A) (A) (A) (A) (A) (A) (A) (A)
                 (A) (A) (A) (A) (A) (A) (A) (A) (A) (A) (A) (A)
                 (A) (A) (A) (A) (A) (A) (A) (A) (A) (A) (A) (A)
                 (A) (A) (A) (A) (A) (A) (A) (A) (A) (A) (A) (A)
                 (A) (A) (A) (A) (A) (A) (A) (A) (A) (A) (A) (A)
                 (A) (A) (A) (A) (A) (A) (A) (A) (A) (A) (A) (A)
                 (A) (A) (A) (A) (A) (A) (A) (A) (A) (A) (A) (A)
                 (A) (A) (A) (A) (A) (A) (A) (A) (A) (A) (A) (A)
                 (A) (A) (A) (A) (A) (A) (A) (A) (A) (A) (A) (A)
                 (A) (A) (A) (A) (A) (A) (A) (A) (A) (A) (A) (A)
                 (A) (A) (A) (A) (A) (A) (A) (A) (A) (A) (A) (A)
                 (A) (A) (A) (A) (A) (A) (A) (A) (A) (A) (A) (A)
                 (A) (A) (A) (A) (A) (A) (A) (A) (A) (A) (A) (A)
                 (A) (A) (A) (A) (A) (A) (A) (A) (A) (A) (A) (A)
                 (A) (A) (A) (A) (A) (A) (A) (A) (A) (A) (A) (A)
                 (A) (A) (A) (A) (A) (A) (A) (A) (A) (A) (A) (A)
                 (A) (A) (A) (A) (A) (A) (A) (A) (A) (A) (A) (A)
                 (A) (A) (A) (A) (A) (A) (A) (A) (A) (A) (A) (A)
                 (A) (A) (A) (A) (A) (A) (A) (A) (A) (A) (A) (A)
                 (A) (A) (A) (A) (A) (A) (A) (A) (A) (A) (A) (A)
                 (A) (A) (A) (A) (A) (A) (A) (A) (A) (A) (A) (A)
                 (A) (A) (A) (A) (A) (A) (A) (A) (A) (A) (A) (A)
                 (A) (A) (A) (A) (A) (A) (A) (A) (A) (A) (A) (A)
                 (A) (A) (A)
 The electronic state is 1-A.
 Alpha  occ. eigenvalues --  -19.09497 -19.09496 -19.09495 -14.37073 -14.37073
 Alpha  occ. eigenvalues --  -14.37070 -10.25498 -10.25498 -10.25497 -10.24097
 Alpha  occ. eigenvalues --  -10.24097 -10.24096 -10.23699 -10.23699 -10.23698
 Alpha  occ. eigenvalues --  -10.19039 -10.19039 -10.19038 -10.18984 -10.18984
 Alpha  occ. eigenvalues --  -10.18983 -10.18966 -10.18966 -10.18965 -10.18926
 Alpha  occ. eigenvalues --  -10.18926 -10.18926 -10.18379 -10.18379 -10.18379
 Alpha  occ. eigenvalues --  -10.17517 -10.17517 -10.17516  -1.03311  -1.02553
 Alpha  occ. eigenvalues --   -1.02551  -0.98243  -0.98242  -0.98006  -0.86981
 Alpha  occ. eigenvalues --   -0.86981  -0.86959  -0.82638  -0.79564  -0.79563
 Alpha  occ. eigenvalues --   -0.76840  -0.76607  -0.76607  -0.76450  -0.74262
 Alpha  occ. eigenvalues --   -0.74261  -0.69022  -0.66106  -0.66106  -0.63753
 Alpha  occ. eigenvalues --   -0.63558  -0.63557  -0.61743  -0.61023  -0.61023
 Alpha  occ. eigenvalues --   -0.58567  -0.58567  -0.57293  -0.55769  -0.55769
 Alpha  occ. eigenvalues --   -0.55004  -0.51583  -0.50678  -0.50677  -0.48922
 Alpha  occ. eigenvalues --   -0.48585  -0.48585  -0.46202  -0.46069  -0.46068
 Alpha  occ. eigenvalues --   -0.45567  -0.45320  -0.44915  -0.44776  -0.44775
 Alpha  occ. eigenvalues --   -0.43983  -0.43983  -0.43909  -0.43210  -0.43209
 Alpha  occ. eigenvalues --   -0.42464  -0.42464  -0.41535  -0.41211  -0.40397
 Alpha  occ. eigenvalues --   -0.40397  -0.38560  -0.38560  -0.37854  -0.37834
 Alpha  occ. eigenvalues --   -0.37834  -0.36284  -0.36283  -0.36235  -0.35966
 Alpha  occ. eigenvalues --   -0.35966  -0.35787  -0.27850  -0.27850  -0.27551
 Alpha  occ. eigenvalues --   -0.27199  -0.27198  -0.27187  -0.26723  -0.26723
 Alpha  occ. eigenvalues --   -0.24642  -0.23831  -0.21419  -0.21419
 Alpha virt. eigenvalues --   -0.08507  -0.06101  -0.06101  -0.02828  -0.02828
 Alpha virt. eigenvalues --   -0.02824  -0.00978  -0.00752  -0.00752  -0.00363
 Alpha virt. eigenvalues --   -0.00362  -0.00089   0.00508   0.00508   0.00772
 Alpha virt. eigenvalues --    0.01105   0.01906   0.01906   0.02676   0.03153
 Alpha virt. eigenvalues --    0.03153   0.03934   0.03934   0.04231   0.04504
 Alpha virt. eigenvalues --    0.05097   0.05126   0.05126   0.05488   0.05976
 Alpha virt. eigenvalues --    0.05976   0.06397   0.06397   0.06728   0.07179
 Alpha virt. eigenvalues --    0.07179   0.08038   0.08038   0.08521   0.08522
 Alpha virt. eigenvalues --    0.08556   0.08870   0.08871   0.09059   0.09751
 Alpha virt. eigenvalues --    0.10271   0.10271   0.10461   0.10494   0.11190
 Alpha virt. eigenvalues --    0.11191   0.11418   0.11419   0.11577   0.11628
 Alpha virt. eigenvalues --    0.11628   0.11719   0.11905   0.11905   0.11953
 Alpha virt. eigenvalues --    0.12369   0.12632   0.12632   0.12729   0.12729
 Alpha virt. eigenvalues --    0.12918   0.13349   0.13349   0.13418   0.13419
 Alpha virt. eigenvalues --    0.13514   0.13514   0.13651   0.13842   0.14361
 Alpha virt. eigenvalues --    0.14688   0.15123   0.15124   0.16007   0.16008
 Alpha virt. eigenvalues --    0.16069   0.16168   0.16169   0.16208   0.17091
 Alpha virt. eigenvalues --    0.17091   0.17417   0.17552   0.17553   0.17850
 Alpha virt. eigenvalues --    0.18518   0.18595   0.18596   0.18875   0.19075
 Alpha virt. eigenvalues --    0.19076   0.19113   0.19299   0.19299   0.19785
 Alpha virt. eigenvalues --    0.19785   0.19852   0.20235   0.20237   0.20436
 Alpha virt. eigenvalues --    0.20467   0.20468   0.20968   0.21834   0.22055
 Alpha virt. eigenvalues --    0.22056   0.22348   0.22586   0.22842   0.22842
 Alpha virt. eigenvalues --    0.23266   0.23957   0.23957   0.24383   0.24830
 Alpha virt. eigenvalues --    0.25034   0.25035   0.25273   0.25384   0.25385
 Alpha virt. eigenvalues --    0.25747   0.25784   0.25788   0.25906   0.25906
 Alpha virt. eigenvalues --    0.26733   0.27009   0.27012   0.27129   0.27189
 Alpha virt. eigenvalues --    0.27190   0.27429   0.27431   0.28115   0.28647
 Alpha virt. eigenvalues --    0.28683   0.28684   0.28763   0.28765   0.29471
 Alpha virt. eigenvalues --    0.29898   0.29898   0.30229   0.30911   0.30912
 Alpha virt. eigenvalues --    0.31015   0.31301   0.31302   0.32676   0.32703
 Alpha virt. eigenvalues --    0.32735   0.32737   0.32768   0.32839   0.33336
 Alpha virt. eigenvalues --    0.33337   0.33834   0.33834   0.34212   0.34212
 Alpha virt. eigenvalues --    0.34523   0.34762   0.35313   0.35314   0.35638
 Alpha virt. eigenvalues --    0.35865   0.35868   0.36728   0.36729   0.37090
 Alpha virt. eigenvalues --    0.37355   0.37355   0.38601   0.38621   0.38623
 Alpha virt. eigenvalues --    0.38923   0.40433   0.40435   0.40690   0.42123
 Alpha virt. eigenvalues --    0.42126   0.42778   0.42781   0.43321   0.43969
 Alpha virt. eigenvalues --    0.43972   0.44704   0.46223   0.46224   0.46502
 Alpha virt. eigenvalues --    0.47529   0.47529   0.48782   0.50019   0.50200
 Alpha virt. eigenvalues --    0.50201   0.51789   0.52178   0.52179   0.52200
 Alpha virt. eigenvalues --    0.52903   0.52903   0.53589   0.53590   0.53920
 Alpha virt. eigenvalues --    0.53976   0.53977   0.54916   0.55150   0.55151
 Alpha virt. eigenvalues --    0.55216   0.55217   0.55608   0.55815   0.56941
 Alpha virt. eigenvalues --    0.56942   0.56985   0.57189   0.57345   0.57345
 Alpha virt. eigenvalues --    0.57495   0.57897   0.57897   0.58408   0.59004
 Alpha virt. eigenvalues --    0.59006   0.59422   0.59718   0.59718   0.59750
 Alpha virt. eigenvalues --    0.60072   0.60073   0.61663   0.61815   0.61815
 Alpha virt. eigenvalues --    0.62746   0.63793   0.63793   0.64136   0.64136
 Alpha virt. eigenvalues --    0.64616   0.64722   0.64723   0.65896   0.66492
 Alpha virt. eigenvalues --    0.67251   0.67448   0.67449   0.68098   0.68098
 Alpha virt. eigenvalues --    0.68523   0.69146   0.69147   0.69524   0.70893
 Alpha virt. eigenvalues --    0.70894   0.71394   0.71981   0.71982   0.72302
 Alpha virt. eigenvalues --    0.72303   0.72975   0.73068   0.73069   0.74513
 Alpha virt. eigenvalues --    0.74830   0.74831   0.75928   0.76181   0.77001
 Alpha virt. eigenvalues --    0.77002   0.77502   0.77504   0.78566   0.78979
 Alpha virt. eigenvalues --    0.78980   0.80352   0.81533   0.82463   0.82907
 Alpha virt. eigenvalues --    0.82908   0.83182   0.83959   0.83960   0.84381
 Alpha virt. eigenvalues --    0.84546   0.84547   0.85041   0.86589   0.86590
 Alpha virt. eigenvalues --    0.86940   0.87023   0.87286   0.87287   0.88209
 Alpha virt. eigenvalues --    0.88210   0.88440   0.89054   0.89055   0.90678
 Alpha virt. eigenvalues --    0.90834   0.90835   0.91359   0.91359   0.91765
 Alpha virt. eigenvalues --    0.92088   0.92088   0.92487   0.93551   0.94148
 Alpha virt. eigenvalues --    0.94442   0.94444   0.95070   0.96608   0.96612
 Alpha virt. eigenvalues --    0.96682   0.96685   0.97743   0.98196   0.99494
 Alpha virt. eigenvalues --    0.99495   0.99540   0.99541   0.99704   1.01159
 Alpha virt. eigenvalues --    1.01160   1.02378   1.02727   1.02729   1.03759
 Alpha virt. eigenvalues --    1.04247   1.05574   1.05575   1.05908   1.05908
 Alpha virt. eigenvalues --    1.06724   1.06888   1.06888   1.07559   1.08155
 Alpha virt. eigenvalues --    1.08156   1.08179   1.08385   1.08386   1.10556
 Alpha virt. eigenvalues --    1.10556   1.11531   1.11532   1.11688   1.12155
 Alpha virt. eigenvalues --    1.12941   1.12941   1.13124   1.14215   1.14918
 Alpha virt. eigenvalues --    1.14919   1.16000   1.16001   1.18057   1.19467
 Alpha virt. eigenvalues --    1.19611   1.19613   1.20718   1.20721   1.21712
 Alpha virt. eigenvalues --    1.24556   1.24557   1.25152   1.26012   1.26013
 Alpha virt. eigenvalues --    1.29495   1.29498   1.30594   1.32053   1.33444
 Alpha virt. eigenvalues --    1.33444   1.33700   1.34699   1.34700   1.35791
 Alpha virt. eigenvalues --    1.36753   1.36754   1.40125   1.43244   1.43251
 Alpha virt. eigenvalues --    1.46347   1.48575   1.49360   1.49362   1.50374
 Alpha virt. eigenvalues --    1.50854   1.50855   1.50976   1.51842   1.51927
 Alpha virt. eigenvalues --    1.51928   1.53509   1.53510   1.54206   1.54621
 Alpha virt. eigenvalues --    1.55388   1.55401   1.55402   1.55747   1.55748
 Alpha virt. eigenvalues --    1.55924   1.56060   1.56061   1.56113   1.56321
 Alpha virt. eigenvalues --    1.56323   1.57553   1.57554   1.57742   1.59248
 Alpha virt. eigenvalues --    1.59250   1.61579   1.61580   1.61706   1.65035
 Alpha virt. eigenvalues --    1.65347   1.65348   1.65388   1.65389   1.66120
 Alpha virt. eigenvalues --    1.66437   1.66823   1.66823   1.68048   1.68049
 Alpha virt. eigenvalues --    1.69313   1.72917   1.72917   1.73094   1.74070
 Alpha virt. eigenvalues --    1.74071   1.74134   1.74461   1.74462   1.76256
 Alpha virt. eigenvalues --    1.76313   1.76313   1.77271   1.77926   1.77928
 Alpha virt. eigenvalues --    1.79090   1.81484   1.81485   1.82356   1.82530
 Alpha virt. eigenvalues --    1.82531   1.83399   1.86129   1.86131   1.86196
 Alpha virt. eigenvalues --    1.86198   1.86643   1.87981   1.87982   1.88569
 Alpha virt. eigenvalues --    1.89823   1.89824   1.91098   1.91100   1.91717
 Alpha virt. eigenvalues --    1.91760   1.91761   1.94424   1.95003   1.95003
 Alpha virt. eigenvalues --    1.96043   1.96264   1.96266   1.96309   1.96642
 Alpha virt. eigenvalues --    1.96644   1.96658   1.97406   1.97406   1.99180
 Alpha virt. eigenvalues --    2.00136   2.00137   2.00339   2.01165   2.01167
 Alpha virt. eigenvalues --    2.02964   2.03390   2.03395   2.05185   2.05275
 Alpha virt. eigenvalues --    2.05540   2.05541   2.06775   2.06775   2.07287
 Alpha virt. eigenvalues --    2.07873   2.07874   2.09793   2.15361   2.15363
 Alpha virt. eigenvalues --    2.17771   2.18027   2.18716   2.18717   2.21502
 Alpha virt. eigenvalues --    2.24307   2.24307   2.24897   2.24899   2.25412
 Alpha virt. eigenvalues --    2.26984   2.26986   2.27658   2.29108   2.29108
 Alpha virt. eigenvalues --    2.30364   2.35033   2.35033   2.38050   2.41394
 Alpha virt. eigenvalues --    2.41395   2.42558   2.43411   2.43411   2.43551
 Alpha virt. eigenvalues --    2.45435   2.45462   2.45462   2.46875   2.47178
 Alpha virt. eigenvalues --    2.47180   2.47185   2.47186   2.48100   2.50496
 Alpha virt. eigenvalues --    2.50498   2.52740   2.53898   2.53899   2.54411
 Alpha virt. eigenvalues --    2.56035   2.56036   2.56654   2.61372   2.62916
 Alpha virt. eigenvalues --    2.62917   2.63868   2.64007   2.64008   2.64736
 Alpha virt. eigenvalues --    2.65450   2.65450   2.65961   2.66004   2.69828
 Alpha virt. eigenvalues --    2.70225   2.70226   2.70786   2.70788   2.71873
 Alpha virt. eigenvalues --    2.72284   2.72335   2.72336   2.72774   2.72775
 Alpha virt. eigenvalues --    2.73504   2.73504   2.73644   2.74791   2.74791
 Alpha virt. eigenvalues --    2.76491   2.76943   2.76944   2.77809   2.77961
 Alpha virt. eigenvalues --    2.77961   2.79661   2.80167   2.80167   2.81078
 Alpha virt. eigenvalues --    2.81530   2.81530   2.82810   2.82810   2.83684
 Alpha virt. eigenvalues --    2.83977   2.83980   2.84554   2.85019   2.85999
 Alpha virt. eigenvalues --    2.85999   2.86612   2.86613   2.87192   2.87237
 Alpha virt. eigenvalues --    2.87237   2.88415   2.89208   2.89209   2.91851
 Alpha virt. eigenvalues --    2.92032   2.92032   2.93685   2.94022   2.94023
 Alpha virt. eigenvalues --    2.94393   2.98351   2.98366   3.01493   3.02940
 Alpha virt. eigenvalues --    3.02940   3.04484   3.05852   3.06729   3.06854
 Alpha virt. eigenvalues --    3.06854   3.07162   3.07164   3.07743   3.13206
 Alpha virt. eigenvalues --    3.13961   3.13970   3.18502   3.19274   3.19276
 Alpha virt. eigenvalues --    3.22815   3.26811   3.26814   3.28369   3.30266
 Alpha virt. eigenvalues --    3.30267   3.33286   3.33287   3.33371   3.34175
 Alpha virt. eigenvalues --    3.35614   3.35616   3.36023   3.36569   3.36571
 Alpha virt. eigenvalues --    3.39165   3.39171   3.40126   3.47239   3.47680
 Alpha virt. eigenvalues --    3.47682   3.50635   3.51208   3.51210   3.54764
 Alpha virt. eigenvalues --    3.54765   3.55011   3.57490   3.57490   3.58002
 Alpha virt. eigenvalues --    3.59823   3.59824   3.62829   3.66022   3.66024
 Alpha virt. eigenvalues --    3.71572   3.75592   3.75594   3.78528   3.83119
 Alpha virt. eigenvalues --    3.83120   3.87915   3.88688   3.88689   3.89242
 Alpha virt. eigenvalues --    3.92041   3.92043   3.96474   3.99780   4.00043
 Alpha virt. eigenvalues --    4.00044   4.04980   4.04980   4.05118   4.15329
 Alpha virt. eigenvalues --    4.15640   4.15641   4.17770   4.17941   4.17942
 Alpha virt. eigenvalues --    4.25288   4.25289   4.34617   4.44743   4.44744
 Alpha virt. eigenvalues --    4.75570   4.84162   4.84471   4.84472   4.87474
 Alpha virt. eigenvalues --    4.87480   4.89768   5.07630   5.07630   5.09840
 Alpha virt. eigenvalues --    5.16365   5.23150   5.23153   5.37831   5.38601
 Alpha virt. eigenvalues --    5.38603   5.80705   5.85986   5.85989  23.60283
 Alpha virt. eigenvalues --   23.63959  23.63959  23.72697  23.86736  23.86738
 Alpha virt. eigenvalues --   23.92104  23.92106  23.95502  23.95795  23.95796
 Alpha virt. eigenvalues --   23.96054  23.96274  23.96275  23.96472  24.05889
 Alpha virt. eigenvalues --   24.05935  24.05936  24.09046  24.09048  24.09460
 Alpha virt. eigenvalues --   24.09472  24.09472  24.10236  24.18469  24.18589
 Alpha virt. eigenvalues --   24.18590  35.66143  35.67391  35.67393  50.05511
 Alpha virt. eigenvalues --   50.05512  50.13162
          Condensed to atoms (all electrons):
 Mulliken charges:
               1
     1  C    0.129579
     2  C   -0.392496
     3  C    0.129717
     4  C   -0.392899
     5  C    0.129841
     6  C   -0.392597
     7  O   -0.308493
     8  O   -0.308446
     9  O   -0.308503
    10  C   -0.355287
    11  C   -0.355131
    12  C   -0.355351
    13  N    0.163116
    14  H    0.266807
    15  N    0.163127
    16  H    0.266833
    17  N    0.163086
    18  H    0.266813
    19  C   -0.212674
    20  H    0.473396
    21  C   -0.212454
    22  H    0.473199
    23  C   -0.212613
    24  H    0.473278
    25  C   -0.220451
    26  C   -0.220613
    27  C   -0.220654
    28  C   -0.299780
    29  H    0.144783
    30  C    0.480487
    31  C   -0.299788
    32  H    0.144778
    33  C    0.480519
    34  C    0.480539
    35  C   -0.299856
    36  H    0.144788
    37  C   -0.157969
    38  H    0.108287
    39  C   -0.343148
    40  H    0.182834
    41  C   -0.343147
    42  H    0.182834
    43  C   -0.157905
    44  H    0.108297
    45  C   -0.157976
    46  H    0.108316
    47  C   -0.343094
    48  H    0.182833
    49  H    0.191828
    50  H    0.149251
    51  H    0.191827
    52  H    0.149253
    53  H    0.149253
    54  H    0.191824
 Sum of Mulliken charges =   0.00000
 Mulliken charges with hydrogens summed into heavy atoms:
               1
     1  C    0.129579
     2  C   -0.392496
     3  C    0.129717
     4  C   -0.392899
     5  C    0.129841
     6  C   -0.392597
     7  O   -0.308493
     8  O   -0.308446
     9  O   -0.308503
    10  C   -0.088480
    11  C   -0.088299
    12  C   -0.088538
    13  N    0.636512
    15  N    0.636405
    17  N    0.636284
    19  C   -0.212674
    21  C   -0.212454
    23  C   -0.212613
    25  C   -0.075668
    26  C   -0.075836
    27  C   -0.075866
    28  C   -0.116946
    30  C    0.588774
    31  C   -0.116954
    33  C    0.588816
    34  C    0.588855
    35  C   -0.117023
    37  C    0.033859
    39  C   -0.193897
    41  C   -0.193893
    43  C    0.033922
    45  C    0.033848
    47  C   -0.193841
 APT charges:
               1
     1  C   -1.382477
     2  C    1.313460
     3  C   -1.382499
     4  C    1.313435
     5  C   -1.382394
     6  C    1.313507
     7  O   -0.843404
     8  O   -0.843398
     9  O   -0.843313
    10  C    1.176830
    11  C    1.176852
    12  C    1.176904
    13  N   -1.172134
    14  H    0.107615
    15  N   -1.172129
    16  H    0.107632
    17  N   -1.172117
    18  H    0.107659
    19  C    0.783701
    20  H    0.286573
    21  C    0.783751
    22  H    0.286377
    23  C    0.783787
    24  H    0.286486
    25  C   -0.244536
    26  C   -0.244641
    27  C   -0.244642
    28  C    0.094974
    29  H    0.056963
    30  C   -0.180085
    31  C    0.094984
    32  H    0.056962
    33  C   -0.180080
    34  C   -0.180073
    35  C    0.095046
    36  H    0.056980
    37  C    0.013802
    38  H    0.065893
    39  C   -0.166782
    40  H    0.028792
    41  C   -0.166745
    42  H    0.028798
    43  C    0.013762
    44  H    0.065897
    45  C    0.013758
    46  H    0.065915
    47  C   -0.166788
    48  H    0.028793
    49  H    0.028427
    50  H    0.032352
    51  H    0.028429
    52  H    0.032352
    53  H    0.032351
    54  H    0.028439
 Sum of APT charges =  -0.00000
 APT charges with hydrogens summed into heavy atoms:
               1
     1  C   -1.382477
     2  C    1.313460
     3  C   -1.382499
     4  C    1.313435
     5  C   -1.382394
     6  C    1.313507
     7  O   -0.843404
     8  O   -0.843398
     9  O   -0.843313
    10  C    1.284445
    11  C    1.284484
    12  C    1.284563
    13  N   -0.885560
    15  N   -0.885643
    17  N   -0.885740
    19  C    0.783701
    21  C    0.783751
    23  C    0.783787
    25  C   -0.187573
    26  C   -0.187679
    27  C   -0.187663
    28  C    0.123767
    30  C   -0.114192
    31  C    0.123782
    33  C   -0.114183
    34  C   -0.114158
    35  C    0.123839
    37  C    0.042229
    39  C   -0.134430
    41  C   -0.134393
    43  C    0.042190
    45  C    0.042197
    47  C   -0.134437
 Electronic spatial extent (au):  <R**2>=          23353.9321
 Charge=              0.0000 electrons
 Dipole moment (field-independent basis, Debye):
    X=              0.0005    Y=              0.0012    Z=              0.0007  Tot=              0.0015
 Quadrupole moment (field-independent basis, Debye-Ang):
   XX=           -158.5430   YY=           -158.5462   ZZ=           -203.3534
   XY=             -0.0030   XZ=             -0.0049   YZ=              0.0125
 Traceless Quadrupole moment (field-independent basis, Debye-Ang):
   XX=             14.9379   YY=             14.9347   ZZ=            -29.8725
   XY=             -0.0030   XZ=             -0.0049   YZ=              0.0125
 Octapole moment (field-independent basis, Debye-Ang**2):
  XXX=             24.3009  YYY=             76.1562  ZZZ=             -0.0150  XYY=            -24.2672
  XXY=            -76.1281  XXZ=              0.0998  XZZ=              0.0001  YZZ=             -0.0020
  YYZ=             -0.1253  XYZ=              0.0089
 Hexadecapole moment (field-independent basis, Debye-Ang**3):
 XXXX=         -14155.4478 YYYY=         -14152.8970 ZZZZ=           -231.3059 XXXY=             -0.1060
 XXXZ=              2.1642 YYYX=             -0.0461 YYYZ=             -0.3919 ZZZX=              0.0065
 ZZZY=              0.0205 XXYY=          -4718.0589 XXZZ=          -3072.5345 YYZZ=          -3071.9840
 XXYZ=              0.9824 YYXZ=             -2.4802 ZZXY=             -0.0029
 N-N= 2.888339097412D+03 E-N=-9.110949552921D+03  KE= 1.425839762349D+03
  Exact polarizability:     622.748       0.002     622.702      -0.018       0.042     171.253
 Approx polarizability:     852.059       0.000     852.026      -0.041       0.101     276.921
 No NMR shielding tensors so no spin-rotation constants.
 Leave Link  601 at Mon Jan 25 13:52:50 2021, MaxMem=  9395240960 cpu:              10.4 elap:               0.7
 (Enter /apps/gent/CO7/haswell-ib/software/Gaussian/g16_C.01-intel-2019a/g16/l701.exe.bin)
 ... and contract with generalized density number  0.
 Compute integral second derivatives.
 R6Disp: Adding Grimme-D3 dispersion energy 2nd derivatives to the Hessian.
 Leave Link  701 at Mon Jan 25 13:52:51 2021, MaxMem=  9395240960 cpu:               9.4 elap:               0.7
 (Enter /apps/gent/CO7/haswell-ib/software/Gaussian/g16_C.01-intel-2019a/g16/l702.exe.bin)
 L702 exits ... SP integral derivatives will be done elsewhere.
 Leave Link  702 at Mon Jan 25 13:52:51 2021, MaxMem=  9395240960 cpu:               0.2 elap:               0.0
 (Enter /apps/gent/CO7/haswell-ib/software/Gaussian/g16_C.01-intel-2019a/g16/l703.exe.bin)
 Integral derivatives from FoFJK, PRISM(SPDF).
 Compute integral second derivatives, UseDBF=F ICtDFT=           0.
 Calling FoFJK, ICntrl=    100127 FMM=F ISym2X=0 I1Cent= 0 IOpClX= 0 NMat=1 NMatS=1 NMatT=0.
 FoFJK:  IHMeth= 1 ICntrl=  100127 DoSepK=F KAlg= 0 I1Cent=           0 FoldK=F
 IRaf=         0 NMat=       1 IRICut=       1 DoRegI=T DoRafI=F ISym2E= 0 IDoP0=0 IntGTp=1.
 FoFCou: FMM=F IPFlag=           0 FMFlag=      100000 FMFlg1=         800
         NFxFlg=           0 DoJE=F BraDBF=F KetDBF=F FulRan=T
         wScrn=  0.000000 ICntrl=    100127 IOpCl=  0 I1Cent=           0 NGrid=           0
         NMat0=    1 NMatS0=      1 NMatT0=    0 NMatD0=    1 NMtDS0=    0 NMtDT0=    0
 Symmetry not used in FoFCou.
 Leave Link  703 at Mon Jan 25 14:23:47 2021, MaxMem=  9395240960 cpu:           27572.6 elap:            1856.1
 (Enter /apps/gent/CO7/haswell-ib/software/Gaussian/g16_C.01-intel-2019a/g16/l716.exe.bin)
 Dipole        = 2.00542981D-04 4.90470439D-04 2.73675777D-04
 Polarizability= 6.22747715D+02 2.32730980D-03 6.22701527D+02
                -1.82196342D-02 4.21828735D-02 1.71253188D+02
 Full mass-weighted force constant matrix:
 Low frequencies ---    0.0003    0.0004    0.0009    0.8089    1.9504    3.1759
 Low frequencies ---    5.0361    8.4550    9.6830
 Diagonal vibrational polarizability:
      103.8292206     103.7862858     165.9050285
 Harmonic frequencies (cm**-1), IR intensities (KM/Mole), Raman scattering
 activities (A**4/AMU), depolarization ratios for plane and unpolarized
 incident light, reduced masses (AMU), force constants (mDyne/A),
 and normal coordinates:
                      1                      2                      3
                      A                      A                      A
 Frequencies --      5.0229                 8.4429                 9.6472
 Red. masses --      3.5971                 3.6164                 3.6174
 Frc consts  --      0.0001                 0.0002                 0.0002
 IR Inten    --      0.0111                 0.0044                 0.0009
  Atom  AN      X      Y      Z        X      Y      Z        X      Y      Z
     1   6    -0.00  -0.00  -0.01    -0.00   0.00   0.01    -0.00  -0.00  -0.01
     2   6     0.00  -0.00  -0.01    -0.00   0.00   0.02    -0.00  -0.00  -0.00
     3   6     0.00  -0.00  -0.01    -0.00   0.00   0.01    -0.00  -0.00   0.00
     4   6     0.00   0.00  -0.01    -0.00  -0.00   0.00    -0.00  -0.00   0.00
     5   6    -0.00   0.00  -0.01    -0.00  -0.00   0.00    -0.00  -0.00  -0.00
     6   6    -0.00  -0.00  -0.01     0.00   0.00   0.00    -0.00  -0.00  -0.01
     7   8    -0.00  -0.00  -0.02     0.00   0.00   0.00    -0.00  -0.00  -0.03
     8   8     0.00   0.00  -0.02    -0.00  -0.00  -0.00    -0.00  -0.00   0.01
     9   8     0.00  -0.00  -0.01    -0.00   0.00   0.03    -0.00  -0.00   0.00
    10   6    -0.00   0.00  -0.01     0.00  -0.00  -0.00    -0.00  -0.00   0.00
    11   6     0.00   0.00  -0.01    -0.00  -0.00   0.01    -0.00  -0.00   0.00
    12   6    -0.00  -0.00  -0.01    -0.00   0.00   0.00    -0.00  -0.00  -0.01
    13   7    -0.00   0.00  -0.02     0.00  -0.00  -0.00    -0.00  -0.00   0.01
    14   1    -0.00   0.00  -0.02    -0.00  -0.00  -0.00    -0.00  -0.00  -0.00
    15   7     0.00  -0.00  -0.00    -0.00   0.00   0.02    -0.00  -0.00  -0.00
    16   1     0.00   0.00  -0.01    -0.00  -0.00   0.01    -0.00  -0.00   0.00
    17   7    -0.00  -0.00  -0.01     0.00   0.00  -0.01    -0.00  -0.00  -0.02
    18   1     0.00  -0.00  -0.01    -0.00   0.00   0.01     0.00  -0.00  -0.01
    19   6    -0.00   0.00   0.00     0.00  -0.00   0.01    -0.00  -0.00   0.02
    20   1    -0.00   0.00  -0.03     0.00  -0.00  -0.01    -0.00  -0.00   0.02
    21   6    -0.00  -0.00  -0.01     0.00   0.00  -0.02    -0.00  -0.00  -0.00
    22   1    -0.00  -0.00  -0.02     0.00   0.00   0.00    -0.00  -0.00  -0.04
    23   6     0.00  -0.00   0.01    -0.00   0.00   0.01     0.00  -0.00  -0.01
    24   1     0.00  -0.00  -0.01    -0.00   0.00   0.04    -0.00  -0.00   0.01
    25   6     0.00  -0.00  -0.20     0.00  -0.00  -0.10    -0.00   0.00   0.05
    26   6    -0.00   0.00  -0.07     0.00   0.00   0.20     0.00  -0.00   0.09
    27   6     0.00   0.00  -0.07    -0.00  -0.00   0.06     0.00   0.00  -0.21
    28   6     0.00  -0.00  -0.19     0.00  -0.00  -0.10    -0.00   0.00   0.06
    29   1     0.00  -0.00  -0.37     0.00  -0.00  -0.19    -0.00   0.00   0.07
    30   6    -0.00   0.00   0.22    -0.00   0.00   0.12    -0.00  -0.00  -0.01
    31   6    -0.00  -0.00  -0.06     0.00   0.00   0.20     0.00  -0.00   0.08
    32   1    -0.00   0.00  -0.14     0.00  -0.00   0.36     0.00  -0.00   0.17
    33   6     0.00  -0.00   0.10    -0.00   0.00  -0.19    -0.00   0.00  -0.12
    34   6    -0.00  -0.00   0.07     0.00   0.00  -0.11    -0.00  -0.00   0.22
    35   6     0.00   0.00  -0.07    -0.00  -0.00   0.05     0.00   0.00  -0.21
    36   1     0.00   0.00  -0.13    -0.00  -0.00   0.13     0.00   0.00  -0.38
    37   6    -0.00   0.00   0.22     0.00   0.00   0.12    -0.00  -0.00   0.00
    38   1    -0.00   0.00   0.41    -0.00   0.00   0.21    -0.00  -0.00  -0.03
    39   6     0.00   0.00   0.02     0.00  -0.00   0.01    -0.00   0.00   0.03
    40   1     0.00  -0.00  -0.36     0.00  -0.00  -0.18    -0.00   0.00   0.08
    41   6    -0.00  -0.00   0.03     0.00   0.00   0.00     0.00   0.00  -0.03
    42   1    -0.00   0.00  -0.13     0.00   0.00   0.35     0.00  -0.00   0.16
    43   6     0.00  -0.00   0.11    -0.00   0.00  -0.19    -0.00   0.00  -0.13
    44   1     0.00  -0.00   0.18    -0.00   0.00  -0.37    -0.00   0.00  -0.21
    45   6    -0.00  -0.00   0.07     0.00   0.00  -0.12    -0.00  -0.00   0.22
    46   1    -0.00  -0.00   0.13     0.00   0.00  -0.18    -0.00  -0.00   0.41
    47   6     0.00   0.00  -0.00    -0.00  -0.00  -0.04     0.00   0.00   0.00
    48   1     0.00   0.00  -0.12    -0.00  -0.00   0.11     0.00   0.00  -0.37
    49   1    -0.00   0.00   0.40    -0.00   0.00   0.20    -0.00  -0.00  -0.02
    50   1     0.00  -0.00   0.02     0.00  -0.00   0.01    -0.00   0.00   0.04
    51   1     0.00  -0.00   0.18    -0.00   0.00  -0.35    -0.00   0.00  -0.21
    52   1    -0.00  -0.00   0.03     0.00   0.00   0.00     0.00   0.00  -0.03
    53   1     0.00   0.00   0.00    -0.00  -0.00  -0.05     0.00   0.00   0.01
    54   1    -0.00  -0.00   0.13     0.00   0.00  -0.19    -0.00  -0.00   0.39
                      4                      5                      6
                      A                      A                      A
 Frequencies --     17.7943                36.2485                36.3862
 Red. masses --      6.9004                 5.8085                 5.8031
 Frc consts  --      0.0013                 0.0045                 0.0045
 IR Inten    --      1.3810                 0.2025                 0.2023
  Atom  AN      X      Y      Z        X      Y      Z        X      Y      Z
     1   6    -0.00   0.00  -0.14    -0.07  -0.00  -0.01     0.00  -0.06   0.00
     2   6    -0.00   0.00  -0.15    -0.07  -0.01  -0.01     0.00  -0.06  -0.01
     3   6    -0.00   0.00  -0.14    -0.07  -0.00  -0.00     0.01  -0.07  -0.01
     4   6    -0.00  -0.00  -0.15    -0.07  -0.00   0.01     0.01  -0.07  -0.00
     5   6    -0.00  -0.00  -0.14    -0.06  -0.00   0.01     0.00  -0.07   0.00
     6   6    -0.00   0.00  -0.15    -0.06  -0.01   0.01     0.00  -0.07   0.01
     7   8     0.00   0.00  -0.15    -0.06  -0.00   0.01     0.01  -0.06   0.02
     8   8    -0.00  -0.00  -0.15    -0.07  -0.01   0.02     0.01  -0.06  -0.00
     9   8    -0.00   0.00  -0.14    -0.06  -0.01  -0.03     0.00  -0.06  -0.01
    10   6    -0.00  -0.00  -0.10    -0.06  -0.01   0.01    -0.01  -0.06   0.01
    11   6    -0.00   0.00  -0.10    -0.05   0.01  -0.00     0.00  -0.07  -0.01
    12   6    -0.00   0.00  -0.10    -0.07   0.01  -0.01     0.00  -0.05  -0.00
    13   7    -0.00  -0.00  -0.07    -0.06  -0.03   0.01    -0.01  -0.02   0.00
    14   1     0.00  -0.00  -0.08    -0.04  -0.00   0.01    -0.04  -0.07   0.01
    15   7    -0.00  -0.00  -0.07    -0.01  -0.02  -0.01     0.00  -0.07  -0.01
    16   1    -0.00  -0.00  -0.08    -0.04   0.04   0.01     0.00  -0.07  -0.00
    17   7    -0.00   0.00  -0.07    -0.05   0.02  -0.00     0.04  -0.03   0.01
    18   1    -0.00   0.00  -0.08    -0.08   0.02  -0.02    -0.02  -0.03  -0.01
    19   6     0.00  -0.00   0.01    -0.03  -0.06   0.01    -0.06   0.04   0.00
    20   1    -0.00  -0.00  -0.09    -0.09  -0.04   0.02     0.04  -0.00  -0.00
    21   6    -0.00   0.00   0.01    -0.03   0.06  -0.00     0.06   0.04   0.00
    22   1     0.00   0.00  -0.09    -0.03  -0.00   0.00     0.08  -0.06   0.01
    23   6     0.00  -0.00   0.01     0.07  -0.00  -0.00     0.00  -0.07  -0.00
    24   1    -0.00  -0.00  -0.09    -0.02  -0.07  -0.02     0.00  -0.07  -0.01
    25   6    -0.00  -0.00   0.08    -0.05  -0.11  -0.00    -0.03   0.12  -0.00
    26   6     0.00   0.00   0.09     0.14  -0.07  -0.00     0.00  -0.07   0.00
    27   6     0.00  -0.00   0.09     0.01   0.07   0.00     0.14   0.05   0.00
    28   6    -0.00  -0.00   0.17    -0.02  -0.15  -0.01    -0.09   0.18  -0.00
    29   1    -0.00  -0.00   0.07    -0.08  -0.12   0.00     0.03   0.13   0.00
    30   6     0.00   0.00   0.03     0.01  -0.06   0.00    -0.14   0.02  -0.00
    31   6     0.00   0.00   0.18     0.23  -0.06   0.01     0.00  -0.07   0.01
    32   1     0.00   0.00   0.08     0.11  -0.15  -0.00     0.00  -0.07  -0.00
    33   6     0.00  -0.00   0.03     0.10   0.08  -0.00     0.00  -0.07  -0.00
    34   6    -0.00   0.00   0.03    -0.06   0.09   0.00     0.01   0.10   0.00
    35   6     0.00  -0.00   0.18     0.03   0.11   0.00     0.17   0.13  -0.00
    36   1     0.00  -0.00   0.07     0.04   0.04  -0.00     0.19   0.01   0.00
    37   6     0.00   0.00   0.13     0.04  -0.09  -0.01    -0.19   0.08  -0.00
    38   1     0.00   0.00  -0.02     0.02  -0.02   0.01    -0.16  -0.04   0.00
    39   6     0.00  -0.00   0.20     0.03  -0.14  -0.01    -0.17   0.16  -0.00
    40   1    -0.00  -0.00   0.23    -0.03  -0.18  -0.02    -0.06   0.24  -0.00
    41   6     0.00   0.00   0.20     0.26   0.03   0.01     0.00  -0.07   0.01
[...]
 0003,-0.00000380,-0.00000957,-0.00000003,-0.00349958,-0.00233518,-0.00
 001586,0.00005294,0.00008383,0.00000053,0.03013774,-0.00588150,0.00009
 343,0.00000657,0.00000282,0.,-0.00000423,0.00000115,0.,-0.00000066,0.0
 0000105,0.,-0.00000215,0.00000447,0.00000002,-0.00000049,0.00000333,0.
 00000002,-0.00000596,-0.00000795,-0.00000001,-0.00000333,-0.00000162,0
 .00000001,-0.02074732,0.01091058,-0.00006181,-0.00106982,0.00034327,-0
 .00000285,0.08153282,-0.08581798,0.00023038,-0.00015890,0.00066243,0.0
 0000270,-0.00000143,-0.00000366,0.,-0.00000259,-0.00000103,0.00000002,
 0.00000703,0.00000055,0.,0.00000069,-0.00000130,0.,-0.00000039,-0.0000
 0061,0.,-0.00000045,-0.00000017,0.,-0.08794942,0.08816185,-0.00000009,
 0.00000014,-0.00001504,0.00000013,-0.00000043,0.00003106,-0.00000012,0
 .00000036,-0.00010286,-0.00000056,-0.00000043,-0.00000185,0.00000024,0
 .00000023,0.00001165,-0.00000020,-0.00000011,0.00001586,0.00000003,0.0
 0000013,-0.00000390,0.00000047,0.00000008,-0.00002910,0.00000001,0.000
 00040,-0.00001119,-0.00000037,-0.00000009,-0.00000507,-0.00000026,-0.0
 0000035,0.00005375,0.00000014,-0.00000004,0.00002025,0.00000033,0.0000
 0003,-0.00000349,-0.00000001,0.,0.00000087,-0.00000171,0.00000221,0.00
 027339,-0.00000041,0.00000028,0.00008662,-0.00000004,0.00000014,0.0000
 0084,0.,0.,0.00000500,-0.00000016,-0.00000014,0.00000181,-0.00000006,0
 .,0.00001226,0.00000001,-0.00000004,-0.00000894,-0.00000002,0.,-0.0000
 0120,-0.00001390,-0.00000896,0.00750188,0.00000080,0.00000027,-0.00023
 127,0.00000003,0.00000007,-0.00000406,0.00000448,-0.00000399,-0.001021
 21,0.,-0.00000003,0.00000271,-0.00000002,-0.00000001,-0.00000183,-0.00
 000001,0.,0.00000385,0.00000001,0.00000006,-0.00000151,-0.00003116,-0.
 00001608,0.00686157,0.00000216,0.00000066,-0.00081827,-0.00000200,-0.0
 0000284,0.00323612,0.,-0.00000004,-0.00000255,0.00000001,0.,-0.0000016
 3,0.,0.,0.00000083,0.,-0.00000002,-0.00000043,0.,-0.00000002,0.0000013
 3,0.00000003,0.00000002,-0.00000117,0.00000002,0.,0.00000196,-0.000070
 65,0.00004016,0.00345208,-0.00000396,0.00000196,0.00008308,-0.00082672
 ,0.00022611,-0.03680499,0.00001745,0.00000433,-0.00427025,0.,0.0000000
 2,-0.00000145,0.,0.00000001,0.00000128,0.,0.,0.00000089,0.,0.,0.000000
 41,0.,0.,0.00000069,0.,0.,0.00000097,0.00091173,-0.00024506,0.02549668
 ,-0.00000288,0.00002651,0.00000006,-0.00002819,-0.00006865,-0.00000004
 ,0.00005550,0.00008688,0.00000018,-0.00005978,-0.00001785,-0.00000014,
 0.00001121,0.00001157,-0.00000004,-0.00001311,-0.00000863,-0.00000002,
 0.00000165,0.00001016,0.00000002,0.00003956,-0.00001472,0.00000009,0.0
 0004024,0.00005809,0.00000009,-0.00001589,-0.00000484,0.,-0.00007872,-
 0.00011068,0.00000058,0.00001622,-0.00001753,-0.00000005,0.00001432,0.
 00000144,0.,-0.00000035,-0.00000016,0.,0.00036075,0.00011857,0.0000040
 4,0.00003937,0.00005748,-0.00000055,-0.00000986,0.00001896,0.,0.000002
 17,-0.00000346,0.,-0.00000555,-0.00000525,0.,0.,0.00000168,-0.00000001
 ,0.00001230,-0.00000382,0.00000004,-0.00000123,-0.00000079,0.,-0.00149
 198,-0.00039099,-0.00000361,-0.00004612,-0.00013891,-0.00000050,0.0000
 0183,0.00000114,0.,-0.00519329,0.00098951,-0.00003562,-0.00000303,0.00
 000231,-0.00000004,-0.00000021,-0.00000077,0.00000001,0.00000015,0.000
 00018,0.,0.00000032,0.00000108,0.,-0.00099822,0.03031280,0.00000631,-0
 .00018504,0.00145375,-0.00000070,-0.00312924,-0.00297126,-0.00003244,-
 0.00000234,-0.00000211,0.00000003,0.00000143,-0.00000043,0.00000002,0.
 00000014,-0.00000028,0.,0.00000055,-0.00000058,0.00000001,-0.00000013,
 -0.00000045,0.,0.00000023,0.00000124,0.,0.00000010,-0.00000018,0.,-0.0
 6971454,0.05422965,-0.00007928,0.00065558,-0.00039115,0.00001360,0.008
 84666,-0.02429435,0.00000739,0.00022556,-0.00117060,-0.00000107,0.0000
 0115,0.00000160,-0.00000001,0.00000106,0.00000035,-0.00000003,-0.00000
 232,-0.00000016,0.,-0.00000017,0.00000052,0.,-0.00000006,0.00000035,0.
 ,0.00000022,0.00000003,0.,0.00065796,0.00037958,0.00001431,0.06999674,
 0.00007158,-0.00006934,0.00000004,-0.00009317,0.00011015,0.00000008,0.
 00008191,-0.00017719,0.,0.00007091,0.00014760,-0.00000011,-0.00003099,
 -0.00009997,0.00000006,-0.00000087,0.00002850,-0.00000003,0.00001399,-
 0.00004559,0.,-0.00003569,-0.00005475,0.00000009,0.00003383,-0.0000886
 9,-0.00000007,0.00010162,0.00002432,0.,-0.00002875,0.00021782,0.000000
 20,-0.00007577,0.00006366,-0.00000008,-0.00009063,-0.00002241,0.,0.000
 00050,-0.00000104,0.,-0.00001835,-0.00015305,0.00000047,0.00005122,0.0
 0004398,-0.00000019,0.00005235,-0.00007897,0.00000003,-0.00000586,0.00
 000724,0.00000002,0.00004702,0.00003910,-0.00000001,0.00001075,0.00002
 100,0.00000001,-0.00005289,0.00001587,-0.00000005,-0.00000039,0.000003
 82,0.00000002,-0.00046791,0.00068556,-0.00000106,-0.00003786,0.0000612
 8,0.00000019,-0.00001637,-0.00000443,0.00000002,0.00175577,0.00158116,
 0.00000251,0.00001305,-0.00000969,0.00000005,0.00000679,0.00000368,0.,
 0.00000318,-0.00000025,-0.00000001,-0.00000410,-0.00001128,0.,-0.00085
 085,-0.00548487,-0.00000617,-0.00011865,-0.00036585,-0.00000083,-0.003
 70928,-0.00037951,-0.00001603,0.00000994,0.00000440,-0.00000003,-0.000
 00601,0.00000242,-0.00000004,-0.00000087,0.00000177,0.,-0.00000238,0.0
 0000346,0.00000001,0.00000021,0.00000332,0.00000001,-0.00000462,-0.000
 00916,0.,-0.00000220,0.00000047,0.,0.05419080,-0.32622664,0.00000255,0
 .00043257,0.00064414,0.00000361,0.00692836,-0.01540599,0.00001241,0.00
 035343,-0.00080754,0.00000049,-0.00000254,-0.00000482,0.00000001,-0.00
 000321,-0.00000151,0.00000003,0.00000951,0.00000065,0.,0.00000076,-0.0
 0000209,0.00000001,-0.00000001,-0.00000212,0.,-0.00000134,-0.00000148,
 0.,-0.00043477,0.00062597,0.00000102,-0.05814672,0.34516637,0.00000024
 ,0.00000007,0.00001418,-0.00000090,-0.00000030,-0.00005737,0.00000074,
 -0.00000064,-0.00003125,0.00000020,0.00000049,0.00006644,0.00000010,-0
 .00000019,-0.00000901,-0.00000024,-0.00000003,-0.00000609,0.00000011,-
 0.00000007,-0.00000223,-0.00000001,-0.00000011,-0.00001937,0.00000053,
 0.00000041,0.00001781,0.00000010,0.00000007,0.00000237,-0.00000089,0.0
 0000035,-0.00009430,-0.00000016,0.00000006,-0.00001603,-0.00000009,-0.
 00000004,-0.00000532,0.,0.,0.00000337,0.00000162,0.00000306,-0.0008716
 7,0.00000025,0.00000063,0.00011904,0.00000010,-0.00000013,-0.00000629,
 0.,-0.00000001,0.00000340,0.00000008,0.,0.00000384,0.00000001,0.000000
 05,0.00000410,-0.00000008,0.00000003,0.00000348,-0.00000003,0.,0.00000
 285,-0.00000322,-0.00000206,-0.00044450,0.00000067,-0.00000086,0.00003
 984,-0.00000002,0.,-0.00000174,-0.00003456,0.00000314,0.00674235,0.000
 00002,0.,0.00000115,0.,0.,-0.00000211,0.,0.,0.00000194,-0.00000002,0.0
 0000004,-0.00000256,-0.00000841,0.00008611,0.00230600,-0.00000173,0.00
 000384,0.00030477,-0.00003158,-0.00001492,0.00650384,0.00000002,-0.000
 00002,-0.00000142,-0.00000002,0.,-0.00000115,0.,0.,0.00000076,-0.00000
 001,0.,-0.00000139,0.,0.,0.00000051,0.00000001,-0.00000001,0.00000069,
 0.,0.,0.00000107,-0.00008146,0.00000413,-0.03380890,0.00001395,0.00000
 149,-0.00384406,0.00002345,-0.00008437,0.00227350,-0.00000066,-0.00000
 465,0.00028334,0.,-0.00000002,-0.00000066,-0.00000001,0.,0.00000184,0.
 00000001,0.00000001,-0.00000040,0.,0.,0.00000043,0.,0.,0.00000074,0.,0
 .,0.00000040,0.00001449,0.00000363,-0.00381785,0.00010738,0.00000080,0
 .02434023,-0.00019206,0.00006096,-0.00000006,0.00007280,-0.00014740,0.
 ,-0.00006377,0.00007427,0.00000007,0.00002221,-0.00001951,0.,-0.000095
 17,-0.00001827,0.,0.00014560,-0.00000718,0.00000006,-0.00009624,0.0000
 4496,-0.00000012,-0.00004423,0.00001250,0.,-0.00000935,0.00006391,0.00
 000003,0.00009218,0.00003188,0.,-0.00002763,-0.00009483,-0.00000003,0.
 00020384,-0.00013429,-0.00000018,-0.00009256,-0.00000457,0.00000001,0.
 00001001,0.00000133,0.,0.00002538,0.00008423,0.00000001,-0.00000101,-0
 .00000012,0.,-0.00006805,0.00026573,-0.00000204,-0.00000418,-0.0000261
 2,0.00000014,0.00003954,0.00003714,-0.00000005,0.00000308,-0.00000209,
 0.,0.00051261,-0.00068928,0.00000097,0.00011100,-0.00005285,0.00000050
 ,0.00000986,-0.00005590,-0.00000002,0.00001035,-0.00001673,0.00000002,
 -0.00001467,-0.00000632,0.00000004,0.00000373,0.00001527,0.00000004,-0
 .00129630,-0.00400376,0.00002502,0.00000496,0.00000397,-0.00000003,0.0
 0000186,-0.00000012,0.,-0.00000068,-0.00001090,-0.00000002,0.00000010,
 -0.00000696,-0.00000003,-0.00000160,-0.00000217,-0.00000001,-0.0000070
 8,0.00000836,0.,0.00182634,0.00085156,0.00000332,-0.01712080,0.0101539
 3,-0.00000816,-0.00089863,0.00053059,-0.00000033,-0.00000292,0.0000048
 9,0.,0.00000037,0.00000361,0.00000002,-0.00000414,-0.00000846,0.,-0.00
 000216,0.00000039,0.,-0.00000535,0.00000784,0.,0.00000141,0.00000145,0
 .,0.00000401,0.00000038,0.,0.00000256,-0.00000177,0.00000002,-0.001829
 88,-0.00076787,0.00000897,-0.00019563,-0.00011037,0.00000122,-0.309077
 98,0.08394671,0.00008061,0.00062907,-0.00041752,-0.00000495,0.00000055
 ,-0.00000171,0.,-0.00000162,-0.00000109,0.,-0.00000175,0.00000098,0.,-
 0.00000049,0.00000175,0.,0.32676427,0.00005600,0.00007049,-0.00000020,
 -0.00005868,0.00001498,0.00000021,0.00003170,-0.00002498,0.00000002,-0
 .00001176,-0.00000683,0.00000003,0.00002677,0.00002298,-0.00000008,-0.
 00003163,-0.00006368,0.,0.00002067,0.00004781,-0.00000005,0.00001632,0
 .00000030,-0.00000002,0.00004298,-0.00000582,-0.00000015,-0.00002631,-
 0.00001231,0.00000007,0.00001161,0.00003606,0.00000002,-0.00005245,-0.
 00006514,-0.00000071,0.00002876,0.00000373,-0.00000001,-0.00000106,-0.
 00000060,0.,-0.00000783,-0.00003346,-0.00000001,0.00000055,-0.00000038
 ,0.00000001,0.00012881,0.00027573,-0.00000454,-0.00003232,0.00008764,0
 .00000070,-0.00001189,-0.00001135,0.,-0.00000169,-0.00000048,0.,-0.000
 76609,-0.00131958,0.00000448,0.00004823,-0.00009579,0.00000041,-0.0000
 0364,0.00002369,0.,-0.00000766,0.00001062,0.,0.00000441,0.00000195,0.,
 -0.00000224,-0.00000633,-0.00000001,-0.00323753,-0.00231210,0.00003618
 ,-0.00000161,-0.00000111,0.,-0.00000072,0.00000005,0.,0.00000114,0.000
 00273,-0.00000001,0.00000059,0.00000336,0.,0.00000083,0.00000151,0.000
 00001,0.00000319,-0.00000389,0.,0.00011166,-0.00533493,0.00004373,-0.0
 2100926,0.01063475,-0.00000058,-0.00104190,0.00034778,0.00000133,0.000
 00075,-0.00000075,0.,0.00000004,-0.00000082,0.,0.00000121,0.00000246,0
 .,0.00000063,-0.00000009,0.,0.00000198,-0.00000359,0.00000002,-0.00000
 058,-0.00000084,0.,-0.00000142,0.,-0.00000002,-0.00000111,0.00000063,0
 .,0.03045434,-0.00473160,-0.00001871,0.00141357,-0.00038618,0.00000068
 ,0.08391000,-0.08686698,0.00007236,0.00040621,0.00067052,-0.00001646,0
 .00000006,0.00000051,0.,0.00000027,0.00000036,0.,0.00000063,-0.0000004
 3,0.,0.00000038,-0.00000077,0.,-0.09003520,0.08840303,-0.00000112,-0.0
 0000041,-0.00003127,0.00000039,-0.00000051,0.00006647,-0.00000025,0.,-
 0.00000899,0.00000012,0.00000027,-0.00000608,-0.00000008,-0.00000029,0
 .00001416,0.00000021,0.00000116,-0.00005738,0.00000014,-0.00000082,0.0
 0001780,-0.00000014,-0.00000007,-0.00000223,-0.00000011,0.00000009,-0.
 00001938,0.00000017,0.00000012,-0.00001602,0.00000002,-0.00000013,0.00
 000237,0.00000090,0.00000073,-0.00009437,-0.00000019,-0.00000003,-0.00
 000629,-0.00000001,0.,0.00000340,0.,0.00000012,-0.00000532,0.,0.,0.000
 00337,0.00000218,-0.00000356,-0.00087158,0.00000052,-0.00000064,0.0001
 1894,0.00000008,0.00000008,0.00000348,0.00000001,0.00000003,0.00000285
 ,-0.00000031,0.00000470,-0.00044435,-0.00000132,-0.00000019,0.00003982
 ,-0.00000005,-0.00000008,0.00000384,0.00000005,-0.00000004,0.00000410,
 -0.00000001,-0.00000002,0.00000115,0.00000002,0.00000002,-0.00000174,0
 .00002512,0.00003484,0.00674198,0.00000001,0.00000002,-0.00000115,0.,0
 .,0.00000076,-0.00000002,-0.00000001,-0.00000141,0.00000001,0.,-0.0000
 0211,0.,0.,0.00000194,0.00000006,0.,-0.00000256,0.00000379,0.00004202,
 0.00650342,0.00009745,-0.00004451,0.00230572,0.00000523,-0.00000058,0.
 00030482,-0.00000002,0.,-0.00000066,0.,0.00000001,0.00000183,0.,-0.000
 00001,-0.00000040,0.,0.,0.00000043,-0.00000002,0.,0.00000069,0.,0.,0.0
 0000107,0.,0.00000002,-0.00000139,0.,0.,0.00000051,-0.00010209,0.00002
 654,0.00227098,-0.00000440,0.00000353,0.00028322,0.00008352,0.00007351
 ,-0.03380725,-0.00000733,-0.00001542,-0.00384372,0.,0.,0.00000097,0.,0
 .,0.00000040,0.,0.,0.00000074,0.,0.,0.00000040,-0.00009703,-0.00010303
 ,0.02434287,-0.00037916,0.00020843,-0.00000054,0.00001819,-0.00037141,
 0.00000014,-0.00007064,0.00013845,-0.00000008,0.00001152,-0.00007210,0
 .00000008,-0.00013035,0.00000577,0.00000008,0.00022868,-0.00001660,0.0
 0000009,-0.00026986,0.00002803,-0.00000027,-0.00005094,0.00003053,-0.0
 0000004,0.00010539,0.00019198,-0.00000022,0.00010547,0.00004341,-0.000
 00004,-0.00004717,-0.00016079,-0.00000003,0.00045429,-0.00059172,0.000
 00010,-0.00011136,0.00000052,-0.00000005,0.00001433,0.00000383,0.00000
 003,0.00005231,0.00013561,0.,-0.00000218,-0.00000085,0.00000002,-0.001
 24845,-0.00107937,0.00000505,0.00000252,-0.00003114,0.00000038,0.00004
 383,0.00004150,0.00000002,0.00000200,-0.00000790,0.00000004,-0.0034259
 2,0.00325630,0.00000297,-0.00005333,0.00032591,0.00000078,0.00001474,-
 0.00008247,-0.00000003,-0.00000294,-0.00001995,0.00000006,-0.00001586,
 -0.00000822,0.,-0.00000309,0.00002460,0.,-0.00018489,0.00094267,-0.000
 00480,0.00000507,0.00000482,0.,0.00000196,0.00000011,0.,-0.00000117,-0
 .00001143,-0.00000001,0.00000170,-0.00000815,-0.00000005,-0.00000142,-
 0.00000322,0.00000004,-0.00000974,0.00001206,-0.00000004,-0.01776489,-
 0.02104371,0.00011056,0.00115434,0.00184387,0.00000215,-0.00000260,-0.
 00008428,-0.00000108,-0.00000365,0.00000482,0.,0.00000045,0.00000405,0
 .00000002,-0.00000476,-0.00000971,-0.00000002,-0.00000241,0.00000019,0
 .,-0.00000635,0.00001295,-0.00000002,0.00000091,0.00000447,0.00000002,
 0.00000681,-0.00000025,0.00000003,0.00000435,-0.00000202,0.00000004,-0
 .21235672,-0.13715783,0.00075834,0.00063703,0.00027935,-0.00000770,0.0
 0850882,0.00602909,-0.00002894,0.00025592,0.00037836,-0.00000143,0.000
 00023,-0.00000184,0.,-0.00000146,-0.00000115,0.,-0.00000108,0.00000109
 ,0.,-0.00000019,0.00000128,0.00000001,0.00065827,-0.00037972,-0.000005
 48,0.22386345,-0.00013574,-0.00000127,0.00000007,0.00005975,-0.0000597
 5,-0.00000003,-0.00004201,0.00003291,0.,0.00001765,0.00000099,0.000000
 06,-0.00004484,-0.00002150,-0.00000010,0.00006979,0.00007791,-0.000000
 06,0.00003670,-0.00002255,0.,-0.00002662,0.00000306,0.,-0.00002419,0.0
 0001560,0.,0.00005043,0.00001560,0.00000007,-0.00001362,-0.00004902,-0
 .00000008,0.00005907,-0.00006124,0.00000061,-0.00004944,-0.00000334,-0
 .00000001,0.00000334,0.00000001,0.00000002,0.00001131,0.00004477,0.,-0
 .00000051,-0.00000016,0.,0.00033286,0.00066811,-0.00000058,0.00001128,
 -0.00002304,0.00000017,0.00002113,0.00001899,0.00000002,0.00000226,-0.
 00000037,0.,0.00292608,0.00037724,0.00002149,0.00011319,-0.00008075,-0
 .00000118,0.00000559,-0.00003083,0.00000002,0.00000983,-0.00000997,0.0
 0000003,-0.00000741,-0.00000331,-0.00000001,0.00000420,0.00000784,0.00
 000001,0.00105803,-0.00025847,-0.00000414,0.00000257,0.00000218,0.,0.0
 0000091,0.00000010,0.,-0.00000035,-0.00000560,-0.00000005,-0.00000052,
 -0.00000431,0.,-0.00000097,-0.00000129,-0.00000001,-0.00000411,0.00000
 474,0.,0.00955114,0.00987672,-0.00003968,0.00254824,-0.00520359,0.0000
 4079,-0.00009682,0.00002966,-0.00000297,-0.00000142,0.00000222,0.,-0.0
 0000003,0.00000150,0.00000002,-0.00000217,-0.00000409,-0.00000002,-0.0
 0000123,0.00000023,0.,-0.00000317,0.00000416,-0.00000001,0.00000105,0.
 00000036,0.,0.00000190,0.00000032,0.,0.00000127,-0.00000103,0.00000001
 ,-0.13773587,-0.18220194,0.00073800,-0.00020265,0.00086989,-0.00001908
 ,-0.02490925,-0.01459060,0.00010333,-0.00122120,-0.00085479,0.00000457
 ,0.00000045,-0.00000071,0.,-0.00000080,-0.00000072,0.,-0.00000121,0.00
 000060,0.,-0.00000049,0.00000126,0.,0.00043478,0.00062718,-0.00001743,
 0.14719182,0.19081011,0.00000048,-0.00000011,-0.00010290,-0.00000011,0
 .00000090,-0.00000185,0.00000011,-0.00000042,0.00001163,-0.00000002,0.
 00000030,0.00001585,0.00000023,0.,-0.00001497,-0.00000054,0.00000012,0
 .00003106,0.00000044,-0.00000025,-0.00001118,0.00000012,-0.00000011,-0
 .00000390,-0.00000021,-0.00000056,-0.00002911,-0.00000016,-0.00000011,
 0.00002024,0.00000014,0.00000046,-0.00000507,-0.00000027,0.00000053,0.
 00005377,0.00000019,-0.00000005,0.00000084,0.,0.,0.00000500,-0.0000001
 8,-0.00000039,-0.00000349,0.00000001,0.00000001,0.00000087,0.00000356,
 0.00000064,0.00027369,0.00000054,0.00000027,0.00008642,-0.00000005,-0.
 00000003,-0.00000895,0.,0.00000003,-0.00000121,0.00000022,0.00001951,0
 .00750244,-0.00000020,-0.00000105,-0.00023127,-0.00000005,0.00000027,0
 .00000181,0.00000002,0.00000007,0.00001227,-0.00000005,0.00000003,0.00
 000271,0.00000006,-0.00000008,-0.00000407,-0.00000705,-0.00000238,-0.0
 0102104,0.,-0.00000002,-0.00000163,0.,0.,0.00000083,-0.00000002,0.0000
 0003,-0.00000255,0.,0.00000003,-0.00000183,0.,0.00000001,0.00000385,0.
 00000006,-0.00000006,-0.00000152,0.00000072,0.00000621,0.00323819,0.00
 000260,0.00004224,0.00686183,-0.00000069,-0.00000265,-0.00081818,0.000
 00002,0.,-0.00000145,0.,0.,0.00000128,0.,-0.00000002,0.00000089,0.,0.,
 0.00000041,0.,-0.00000004,-0.00000117,0.,-0.00000003,0.00000196,-0.000
 00002,0.,-0.00000042,-0.00000003,0.,0.00000133,0.00075633,0.00074517,-
 0.03681166,-0.00000665,-0.00002102,-0.00426988,0.00008424,0.00004913,0
 .00345344,0.00000444,0.00000293,0.00008319,0.,0.,0.00000069,0.,0.,0.00
 000074,0.,0.,0.00000069,0.,0.,0.00000097,-0.00000804,-0.00001565,-0.00
 381885,-0.00083020,-0.00082388,0.02549926\\-0.00001844,-0.00001225,0.0
 0000461,0.00001910,0.00002098,-0.00001189,-0.00001392,-0.00001398,0.00
 000196,-0.00000094,-0.00000086,0.00000509,0.00000675,-0.00000279,0.000
 00010,0.00001025,-0.00001631,-0.00000681,0.00001473,0.00003042,0.00000
 432,0.00002203,0.00002121,-0.00000292,-0.00000985,0.00000561,0.0000065
 6,-0.00000719,-0.00000417,0.00000006,0.00001755,0.00001102,0.00000174,
 -0.00000606,0.00000282,0.00000056,-0.00001053,-0.00001331,-0.00000046,
 -0.00000632,-0.00000772,0.00000030,-0.00001047,0.00000161,0.00000041,-
 0.00000588,-0.00000452,-0.00000035,-0.00001687,-0.00001706,0.00000196,
 -0.00000481,0.00000427,0.00000005,0.00000431,0.00000917,-0.00000054,-0
 .00000636,0.00000328,0.00000091,-0.00000859,0.00001249,-0.00000012,0.0
 0001244,0.00000161,-0.00000322,0.00001280,0.00000261,0.00000118,-0.000
 00592,-0.00000543,-0.00000311,-0.00000455,-0.00000988,0.00000008,-0.00
 000453,-0.00000263,0.00000012,0.00001391,-0.00000203,0.00000031,0.0000
 0313,0.00000506,0.00000014,0.00000205,0.00000209,0.00000010,-0.0000049
 3,-0.00001229,-0.00000009,-0.00000770,0.00000009,-0.00000023,0.0000025
 8,-0.00000129,-0.00000011,0.00000650,-0.00000211,-0.00000022,-0.000003
 99,-0.00000499,-0.00000061,0.00000140,0.00000610,-0.00000045,-0.000001
 16,0.00000045,-0.00000035,0.00000385,0.00000515,-0.00000011,0.00000136
 ,-0.00000135,0.00000010,0.00000739,-0.00000377,0.00000013,0.00000065,0
 .00000036,-0.00000007,-0.00000370,-0.00000447,-0.00000028,-0.00000070,
 -0.00000091,-0.00000007,0.00000200,0.00000637,0.,0.00000258,-0.0000064
 8,0.00000012,-0.00000816,0.00000223,0.00000060,0.00000711,0.00000032,0
 .00000004,-0.00000207,-0.00000472,0.00000041,-0.00000034,0.00000053,-0
 .00000008,0.00000054,-0.00000026,0.00000007,0.00000070,0.00000016,0.00
 000004,-0.00000025,-0.00000063,0.00000008,-0.00000027,0.00000018,0.,-0
 .00000003,-0.00000025,-0.00000013,-0.00000114,0.00000029,0.00000011\\\
 @
 The archive entry for this job was punched.


 THEREFORE SHALL EVIL COME UPON THEE...
 THOU SHALT NOT KNOW FROM WHENCE IT RISETH...
 AND MISCHIEF SHALL FALL UPON THEE...
 THOU SHALT NOT BE ABLE TO PUT IT OFF...
 AND DESOLATION SHALL COME UPON THEE SUDDENLY...
 WHICH THOU SHALT NOT KNOW...

                                         ISAIAH 47.11
 Job cpu time:       1 days  9 hours 33 minutes 58.8 seconds.
 Elapsed time:       0 days  2 hours 15 minutes 16.1 seconds.
 File lengths (MBytes):  RWF=   3455 Int=      0 D2E=      0 Chk=     51 Scr=      1
 Normal termination of Gaussian 16 at Mon Jan 25 14:23:47 2021.
