 Entering Gaussian System, Link 0=g16
 Initial command:
 /apps/gent/RHEL8/zen3x-ib/software/Gaussian/g16_C.01-iimpi-2020b/g16/l1.exe "/tmp/25139004/Gau-1220731.inp" -scrdir="/tmp/25139004/"
 Entering Link 1 = /apps/gent/RHEL8/zen3x-ib/software/Gaussian/g16_C.01-iimpi-2020b/g16/l1.exe.bin PID=   1220734.
  
 Copyright (c) 1988-2019, Gaussian, Inc.  All Rights Reserved.
  
 This is part of the Gaussian(R) 16 program.  It is based on
 the Gaussian(R) 09 system (copyright 2009, Gaussian, Inc.),
 the Gaussian(R) 03 system (copyright 2003, Gaussian, Inc.),
 the Gaussian(R) 98 system (copyright 1998, Gaussian, Inc.),
 the Gaussian(R) 94 system (copyright 1995, Gaussian, Inc.),
 the Gaussian 92(TM) system (copyright 1992, Gaussian, Inc.),
 the Gaussian 90(TM) system (copyright 1990, Gaussian, Inc.),
 the Gaussian 88(TM) system (copyright 1988, Gaussian, Inc.),
 the Gaussian 86(TM) system (copyright 1986, Carnegie Mellon
 University), and the Gaussian 82(TM) system (copyright 1983,
 Carnegie Mellon University). Gaussian is a federally registered
 trademark of Gaussian, Inc.
  
 This software contains proprietary and confidential information,
 including trade secrets, belonging to Gaussian, Inc.
  
 This software is provided under written license and may be
 used, copied, transmitted, or stored only in accord with that
 written license.
  
 The following legend is applicable only to US Government
 contracts under FAR:
  
                    RESTRICTED RIGHTS LEGEND
  
 Use, reproduction and disclosure by the US Government is
 subject to restrictions as set forth in subparagraphs (a)
 and (c) of the Commercial Computer Software - Restricted
 Rights clause in FAR 52.227-19.
  
 Gaussian, Inc.
 340 Quinnipiac St., Bldg. 40, Wallingford CT 06492
  
  
 ---------------------------------------------------------------
 Warning -- This program may not be used in any manner that
 competes with the business of Gaussian, Inc. or will provide
 assistance to any competitor of Gaussian, Inc.  The licensee
 of this program is prohibited from giving any competitor of
 Gaussian, Inc. access to this program.  By using this program,
 the user acknowledges that Gaussian, Inc. is engaged in the
 business of creating and licensing software in the field of
 computational chemistry and represents and warrants to the
 licensee that it is not a competitor of Gaussian, Inc. and that
 it will not use this program in any manner prohibited above.
 ---------------------------------------------------------------
  

 Cite this work as:
 Gaussian 16, Revision C.01,
 M. J. Frisch, G. W. Trucks, H. B. Schlegel, G. E. Scuseria, 
 M. A. Robb, J. R. Cheeseman, G. Scalmani, V. Barone, 
 G. A. Petersson, H. Nakatsuji, X. Li, M. Caricato, A. V. Marenich, 
 J. Bloino, B. G. Janesko, R. Gomperts, B. Mennucci, H. P. Hratchian, 
 J. V. Ortiz, A. F. Izmaylov, J. L. Sonnenberg, D. Williams-Young, 
 F. Ding, F. Lipparini, F. Egidi, J. Goings, B. Peng, A. Petrone, 
 T. Henderson, D. Ranasinghe, V. G. Zakrzewski, J. Gao, N. Rega, 
 G. Zheng, W. Liang, M. Hada, M. Ehara, K. Toyota, R. Fukuda, 
 J. Hasegawa, M. Ishida, T. Nakajima, Y. Honda, O. Kitao, H. Nakai, 
 T. Vreven, K. Throssell, J. A. Montgomery, Jr., J. E. Peralta, 
 F. Ogliaro, M. J. Bearpark, J. J. Heyd, E. N. Brothers, K. N. Kudin, 
 V. N. Staroverov, T. A. Keith, R. Kobayashi, J. Normand, 
 K. Raghavachari, A. P. Rendell, J. C. Burant, S. S. Iyengar, 
 J. Tomasi, M. Cossi, J. M. Millam, M. Klene, C. Adamo, R. Cammi, 
 J. W. Ochterski, R. L. Martin, K. Morokuma, O. Farkas, 
 J. B. Foresman, and D. J. Fox, Gaussian, Inc., Wallingford CT, 2019.
 
 ******************************************
 Gaussian 16:  AS64L-G16RevC.01  3-Jul-2019
                 4-Oct-2023 
 ******************************************
 %nproc=32
 Will use up to   32 processors via shared memory.
 %mem=70GB
 %chk=PA_TP_TPB_ext_freq.chk
 ----------------------------------------------------------------------
 #P B3LYP/6-311++G(d,p) EmpiricalDispersion=GD3 freq(noraman) SCF=YQC N
 oSymm
 ----------------------------------------------------------------------
 1/10=4,30=1,38=1/1,3;
 2/12=2,15=1,17=6,18=5,40=1/2;
 3/5=4,6=6,7=1111,11=2,25=1,30=1,71=2,74=-5,124=31,140=1/1,2,3;
 4//1;
 5/5=2,8=4,13=1,38=1,98=1/8,2,8;
 8/6=4,10=90,11=11/1;
 11/6=1,8=1,9=11,15=111,16=1,31=1/1,2,10;
 10/6=1,31=1/2;
 6/7=2,8=2,9=2,10=2,28=1/1;
 7/8=1,10=1,25=1,30=1/1,2,3,16;
 1/10=4,30=1/3;
 99//99;
 Leave Link    1 at Wed Oct  4 20:50:27 2023, MaxMem=  9395240960 cpu:               0.5 elap:               0.0
 (Enter /apps/gent/RHEL8/zen3x-ib/software/Gaussian/g16_C.01-iimpi-2020b/g16/l101.exe.bin)
 ------------------------------
 Restart from PA_TP_TPB_ext.log
 ------------------------------
 Symbolic Z-matrix:
 Charge =  0 Multiplicity = 1
 C                    -0.22711  -1.55109  -0.18492 
 C                    -0.13545   1.26593  -0.15718 
 C                    -1.26802  -0.80489   0.39113 
 C                     0.8971    0.52894  -0.75362 
 C                    -1.22212   0.58195   0.40282 
 C                     0.83705  -0.85622  -0.77918 
 H                     1.62614  -1.42796  -1.25264 
 H                    -2.03924   1.14638   0.83959 
 H                     1.74222   1.02639  -1.21157 
 H                    -2.13327  -1.31241   0.80108 
 N                    -0.21784  -2.95103  -0.25145 
 C                    -0.66027  -3.65047   0.72176 
 C                    -0.7366   -5.11454   0.68007 
 C                    -1.20463  -5.80837   1.80455 
 C                    -1.28917  -7.19854   1.79539 
 C                    -0.90598  -7.90951   0.65981 
 C                    -0.43761  -7.22566  -0.46649 
 C                    -0.3534   -5.84001  -0.45987 
 N                    -0.15172   2.6696   -0.10674 
 C                     0.7782    3.51705  -0.55203 
 C                     0.69055   4.89736  -0.46803 
 C                     1.81511   5.66341  -1.01275 
 C                     1.75159   7.11924  -0.94148 
 C                     0.6075    7.81815  -0.34828 
 C                    -0.48709   7.01294   0.18254 
 C                    -0.46727   5.54763   0.13412 
 O                    -1.41729   4.87432   0.59697 
 O                     2.80151   5.08549  -1.52484 
 O                     0.57064   9.06923  -0.29851 
 C                    -1.60029   7.60182   0.75801 
 C                     2.77621   7.90933  -1.43473 
 H                     1.66909   3.10684  -1.01211 
 H                    -0.95652   3.1484    0.31761 
 H                    -0.996    -3.18519   1.65938 
 N                    -1.78429   8.91825   0.88417 
 H                    -2.37233   6.93785   1.1277 
 N                     3.88864   7.44196  -2.00618 
 H                     2.65647   8.98234  -1.3459 
 C                    -2.88145   9.58485   1.45736 
 H                    -1.00544   9.46906   0.50191 
 C                     4.96691   8.17924  -2.52626 
 H                     3.91489   6.41545  -2.04886 
 C                    -2.87036   10.98599   1.43489 
 C                     5.02124   9.57849  -2.50072 
 C                    -3.964     8.91559   2.04193 
 C                    -3.92508   11.70479   1.98595 
 H                    -2.03205   11.5049   0.98245 
 C                     6.02826   7.46021  -3.09225 
 C                     6.12392   10.23713  -3.03647 
 H                     4.21626   10.15857  -2.06848 
 C                    -5.00505   11.04057   2.56618 
 H                    -3.90131   12.78821   1.96021 
 C                    -5.01442   9.64637   2.58901 
 H                    -3.99562   7.83436   2.07778 
 C                     7.18043   9.52275  -3.60025 
 H                     6.15462   11.32049  -3.01095 
 C                     7.12454   8.12973  -3.62394 
 H                     5.98679   6.37641  -3.11223 
 H                    -5.82716   11.60062   2.99535 
 H                    -5.84687   9.11718   3.03875 
 H                     8.03465   10.04459  -4.01463 
 H                     7.9372    7.55873  -4.05817 
 H                    -1.50259  -5.25425   2.6892 
 H                    -1.65264  -7.72485   2.67058 
 H                     0.0062   -5.29701  -1.32525 
 H                    -0.14002  -7.77974  -1.34967 
 H                    -0.97087  -8.99174   0.64929 
 
 ITRead=  0  0  0  0  0  0  0  0  0  0  0  0  0  0  0  0  0  0  0  0
 ITRead=  0  0  0  0  0  0  0  0  0  0  0  0  0  0  0  0  0  0  0  0
 ITRead=  0  0  0  0  0  0  0  0  0  0  0  0  0  0  0  0  0  0  0  0
 ITRead=  0  0  0  0  0  0  0
 MicOpt= -1 -1 -1 -1 -1 -1 -1 -1 -1 -1 -1 -1 -1 -1 -1 -1 -1 -1 -1 -1
 MicOpt= -1 -1 -1 -1 -1 -1 -1 -1 -1 -1 -1 -1 -1 -1 -1 -1 -1 -1 -1 -1
 MicOpt= -1 -1 -1 -1 -1 -1 -1 -1 -1 -1 -1 -1 -1 -1 -1 -1 -1 -1 -1 -1
 MicOpt= -1 -1 -1 -1 -1 -1 -1
 NAtoms=     67 NQM=       67 NQMF=       0 NMMI=      0 NMMIF=      0
                NMic=       0 NMicF=      0.
                    Isotopes and Nuclear Properties:
 (Nuclear quadrupole moments (NQMom) in fm**2, nuclear magnetic moments (NMagM)
  in nuclear magnetons)

  Atom         1           2           3           4           5           6           7           8           9          10
 IAtWgt=          12          12          12          12          12          12           1           1           1           1
 AtmWgt=  12.0000000  12.0000000  12.0000000  12.0000000  12.0000000  12.0000000   1.0078250   1.0078250   1.0078250   1.0078250
 NucSpn=           0           0           0           0           0           0           1           1           1           1
 AtZEff=   0.0000000   0.0000000   0.0000000   0.0000000   0.0000000   0.0000000   0.0000000   0.0000000   0.0000000   0.0000000
 NQMom=    0.0000000   0.0000000   0.0000000   0.0000000   0.0000000   0.0000000   0.0000000   0.0000000   0.0000000   0.0000000
 NMagM=    0.0000000   0.0000000   0.0000000   0.0000000   0.0000000   0.0000000   2.7928460   2.7928460   2.7928460   2.7928460
 AtZNuc=   6.0000000   6.0000000   6.0000000   6.0000000   6.0000000   6.0000000   1.0000000   1.0000000   1.0000000   1.0000000

  Atom        11          12          13          14          15          16          17          18          19          20
 IAtWgt=          14          12          12          12          12          12          12          12          14          12
 AtmWgt=  14.0030740  12.0000000  12.0000000  12.0000000  12.0000000  12.0000000  12.0000000  12.0000000  14.0030740  12.0000000
 NucSpn=           2           0           0           0           0           0           0           0           2           0
 AtZEff=   0.0000000   0.0000000   0.0000000   0.0000000   0.0000000   0.0000000   0.0000000   0.0000000   0.0000000   0.0000000
 NQMom=    2.0440000   0.0000000   0.0000000   0.0000000   0.0000000   0.0000000   0.0000000   0.0000000   2.0440000   0.0000000
 NMagM=    0.4037610   0.0000000   0.0000000   0.0000000   0.0000000   0.0000000   0.0000000   0.0000000   0.4037610   0.0000000
 AtZNuc=   7.0000000   6.0000000   6.0000000   6.0000000   6.0000000   6.0000000   6.0000000   6.0000000   7.0000000   6.0000000

  Atom        21          22          23          24          25          26          27          28          29          30
 IAtWgt=          12          12          12          12          12          12          16          16          16          12
 AtmWgt=  12.0000000  12.0000000  12.0000000  12.0000000  12.0000000  12.0000000  15.9949146  15.9949146  15.9949146  12.0000000
 NucSpn=           0           0           0           0           0           0           0           0           0           0
 AtZEff=   0.0000000   0.0000000   0.0000000   0.0000000   0.0000000   0.0000000   0.0000000   0.0000000   0.0000000   0.0000000
 NQMom=    0.0000000   0.0000000   0.0000000   0.0000000   0.0000000   0.0000000   0.0000000   0.0000000   0.0000000   0.0000000
 NMagM=    0.0000000   0.0000000   0.0000000   0.0000000   0.0000000   0.0000000   0.0000000   0.0000000   0.0000000   0.0000000
 AtZNuc=   6.0000000   6.0000000   6.0000000   6.0000000   6.0000000   6.0000000   8.0000000   8.0000000   8.0000000   6.0000000

  Atom        31          32          33          34          35          36          37          38          39          40
 IAtWgt=          12           1           1           1          14           1          14           1          12           1
 AtmWgt=  12.0000000   1.0078250   1.0078250   1.0078250  14.0030740   1.0078250  14.0030740   1.0078250  12.0000000   1.0078250
 NucSpn=           0           1           1           1           2           1           2           1           0           1
 AtZEff=   0.0000000   0.0000000   0.0000000   0.0000000   0.0000000   0.0000000   0.0000000   0.0000000   0.0000000   0.0000000
 NQMom=    0.0000000   0.0000000   0.0000000   0.0000000   2.0440000   0.0000000   2.0440000   0.0000000   0.0000000   0.0000000
 NMagM=    0.0000000   2.7928460   2.7928460   2.7928460   0.4037610   2.7928460   0.4037610   2.7928460   0.0000000   2.7928460
 AtZNuc=   6.0000000   1.0000000   1.0000000   1.0000000   7.0000000   1.0000000   7.0000000   1.0000000   6.0000000   1.0000000

  Atom        41          42          43          44          45          46          47          48          49          50
 IAtWgt=          12           1          12          12          12          12           1          12          12           1
 AtmWgt=  12.0000000   1.0078250  12.0000000  12.0000000  12.0000000  12.0000000   1.0078250  12.0000000  12.0000000   1.0078250
 NucSpn=           0           1           0           0           0           0           1           0           0           1
 AtZEff=   0.0000000   0.0000000   0.0000000   0.0000000   0.0000000   0.0000000   0.0000000   0.0000000   0.0000000   0.0000000
 NQMom=    0.0000000   0.0000000   0.0000000   0.0000000   0.0000000   0.0000000   0.0000000   0.0000000   0.0000000   0.0000000
 NMagM=    0.0000000   2.7928460   0.0000000   0.0000000   0.0000000   0.0000000   2.7928460   0.0000000   0.0000000   2.7928460
 AtZNuc=   6.0000000   1.0000000   6.0000000   6.0000000   6.0000000   6.0000000   1.0000000   6.0000000   6.0000000   1.0000000

  Atom        51          52          53          54          55          56          57          58          59          60
 IAtWgt=          12           1          12           1          12           1          12           1           1           1
 AtmWgt=  12.0000000   1.0078250  12.0000000   1.0078250  12.0000000   1.0078250  12.0000000   1.0078250   1.0078250   1.0078250
 NucSpn=           0           1           0           1           0           1           0           1           1           1
 AtZEff=   0.0000000   0.0000000   0.0000000   0.0000000   0.0000000   0.0000000   0.0000000   0.0000000   0.0000000   0.0000000
 NQMom=    0.0000000   0.0000000   0.0000000   0.0000000   0.0000000   0.0000000   0.0000000   0.0000000   0.0000000   0.0000000
 NMagM=    0.0000000   2.7928460   0.0000000   2.7928460   0.0000000   2.7928460   0.0000000   2.7928460   2.7928460   2.7928460
 AtZNuc=   6.0000000   1.0000000   6.0000000   1.0000000   6.0000000   1.0000000   6.0000000   1.0000000   1.0000000   1.0000000

  Atom        61          62          63          64          65          66          67
 IAtWgt=           1           1           1           1           1           1           1
 AtmWgt=   1.0078250   1.0078250   1.0078250   1.0078250   1.0078250   1.0078250   1.0078250
 NucSpn=           1           1           1           1           1           1           1
 AtZEff=   0.0000000   0.0000000   0.0000000   0.0000000   0.0000000   0.0000000   0.0000000
 NQMom=    0.0000000   0.0000000   0.0000000   0.0000000   0.0000000   0.0000000   0.0000000
 NMagM=    2.7928460   2.7928460   2.7928460   2.7928460   2.7928460   2.7928460   2.7928460
 AtZNuc=   1.0000000   1.0000000   1.0000000   1.0000000   1.0000000   1.0000000   1.0000000
 Leave Link  101 at Wed Oct  4 20:50:28 2023, MaxMem=  9395240960 cpu:               4.1 elap:               0.2
 (Enter /apps/gent/RHEL8/zen3x-ib/software/Gaussian/g16_C.01-iimpi-2020b/g16/l103.exe.bin)

 GradGradGradGradGradGradGradGradGradGradGradGradGradGradGradGradGradGrad
 Berny optimization.
 Initialization pass.
 Trust Radius=3.00D-01 FncErr=1.00D-07 GrdErr=1.00D-07 EigMax=2.50D+02 EigMin=1.00D-04
 Number of steps in this run=      2 maximum allowed number of steps=      2.
 GradGradGradGradGradGradGradGradGradGradGradGradGradGradGradGradGradGrad

 Leave Link  103 at Wed Oct  4 20:50:28 2023, MaxMem=  9395240960 cpu:               0.2 elap:               0.1
 (Enter /apps/gent/RHEL8/zen3x-ib/software/Gaussian/g16_C.01-iimpi-2020b/g16/l202.exe.bin)
 Symmetry turned off by external request.
 Stoichiometry    C34H26N4O3
 Framework group  C1[X(C34H26N4O3)]
 Deg. of freedom   195
 Full point group                 C1      NOp   1
                          Input orientation:                          
 ---------------------------------------------------------------------
 Center     Atomic      Atomic             Coordinates (Angstroms)
 Number     Number       Type             X           Y           Z
 ---------------------------------------------------------------------
      1          6           0       -0.227108   -1.551091   -0.184923
      2          6           0       -0.135446    1.265933   -0.157182
      3          6           0       -1.268019   -0.804892    0.391129
      4          6           0        0.897097    0.528936   -0.753615
      5          6           0       -1.222118    0.581954    0.402820
      6          6           0        0.837051   -0.856218   -0.779178
      7          1           0        1.626143   -1.427956   -1.252641
      8          1           0       -2.039243    1.146376    0.839587
      9          1           0        1.742224    1.026388   -1.211568
     10          1           0       -2.133271   -1.312411    0.801083
     11          7           0       -0.217837   -2.951034   -0.251452
     12          6           0       -0.660268   -3.650467    0.721762
     13          6           0       -0.736601   -5.114545    0.680071
     14          6           0       -1.204625   -5.808373    1.804551
     15          6           0       -1.289166   -7.198537    1.795388
     16          6           0       -0.905983   -7.909514    0.659809
     17          6           0       -0.437610   -7.225657   -0.466488
     18          6           0       -0.353397   -5.840013   -0.459872
     19          7           0       -0.151720    2.669596   -0.106738
     20          6           0        0.778199    3.517050   -0.552025
     21          6           0        0.690554    4.897357   -0.468027
     22          6           0        1.815107    5.663406   -1.012746
     23          6           0        1.751588    7.119240   -0.941476
     24          6           0        0.607497    7.818146   -0.348277
     25          6           0       -0.487085    7.012936    0.182537
     26          6           0       -0.467265    5.547626    0.134117
     27          8           0       -1.417294    4.874317    0.596972
     28          8           0        2.801506    5.085494   -1.524842
     29          8           0        0.570643    9.069228   -0.298512
     30          6           0       -1.600291    7.601815    0.758008
     31          6           0        2.776205    7.909334   -1.434729
     32          1           0        1.669085    3.106841   -1.012112
     33          1           0       -0.956520    3.148401    0.317611
     34          1           0       -0.995995   -3.185189    1.659381
     35          7           0       -1.784287    8.918246    0.884171
     36          1           0       -2.372330    6.937853    1.127704
     37          7           0        3.888638    7.441961   -2.006176
     38          1           0        2.656465    8.982341   -1.345903
     39          6           0       -2.881446    9.584848    1.457356
     40          1           0       -1.005445    9.469055    0.501911
     41          6           0        4.966910    8.179244   -2.526260
     42          1           0        3.914893    6.415451   -2.048864
     43          6           0       -2.870362   10.985986    1.434886
     44          6           0        5.021243    9.578493   -2.500718
     45          6           0       -3.963997    8.915586    2.041928
     46          6           0       -3.925078   11.704794    1.985948
     47          1           0       -2.032053   11.504904    0.982450
     48          6           0        6.028258    7.460212   -3.092245
     49          6           0        6.123916   10.237127   -3.036468
     50          1           0        4.216260   10.158573   -2.068480
     51          6           0       -5.005055   11.040565    2.566175
     52          1           0       -3.901313   12.788208    1.960213
     53          6           0       -5.014417    9.646368    2.589014
     54          1           0       -3.995623    7.834364    2.077784
     55          6           0        7.180431    9.522750   -3.600253
     56          1           0        6.154618   11.320491   -3.010948
     57          6           0        7.124536    8.129729   -3.623941
     58          1           0        5.986790    6.376412   -3.112227
     59          1           0       -5.827157   11.600624    2.995351
     60          1           0       -5.846868    9.117180    3.038746
     61          1           0        8.034647   10.044588   -4.014632
     62          1           0        7.937195    7.558730   -4.058166
     63          1           0       -1.502588   -5.254252    2.689201
     64          1           0       -1.652644   -7.724848    2.670577
     65          1           0        0.006199   -5.297014   -1.325249
     66          1           0       -0.140015   -7.779743   -1.349669
     67          1           0       -0.970865   -8.991736    0.649291
 ---------------------------------------------------------------------
 Rotational constants (GHZ):           0.0829928           0.0270245           0.0204742
 Leave Link  202 at Wed Oct  4 20:50:29 2023, MaxMem=  9395240960 cpu:               5.8 elap:               0.6
 (Enter /apps/gent/RHEL8/zen3x-ib/software/Gaussian/g16_C.01-iimpi-2020b/g16/l301.exe.bin)
 Standard basis: 6-311++G(d,p) (5D, 7F)
 Ernie: Thresh=  0.10000D-02 Tol=  0.10000D-05 Strict=F.
  1084 basis functions,  1710 primitive gaussians,  1125 cartesian basis functions
   141 alpha electrons      141 beta electrons
       nuclear repulsion energy      3819.4063770968 Hartrees.
 IExCor=  402 DFT=T Ex+Corr=B3LYP ExCW=0 ScaHFX=  0.200000
 ScaDFX=  0.800000  0.720000  1.000000  0.810000 ScalE2=  1.000000  1.000000
 IRadAn=      5 IRanWt=     -1 IRanGd=            0 ICorTp=0 IEmpDi=131
 NAtoms=   67 NActive=   67 NUniq=   67 SFac= 1.00D+00 NAtFMM=   60 NAOKFM=T Big=T
 Integral buffers will be    131072 words long.
 Raffenetti 2 integral format.
 Two-electron integral symmetry is turned off.
 R6Disp:  Grimme-D3 Dispersion energy=       -0.0612884898 Hartrees.
 Nuclear repulsion after empirical dispersion term =     3819.3450886070 Hartrees.
 Leave Link  301 at Wed Oct  4 20:50:30 2023, MaxMem=  9395240960 cpu:               5.7 elap:               0.4
 (Enter /apps/gent/RHEL8/zen3x-ib/software/Gaussian/g16_C.01-iimpi-2020b/g16/l302.exe.bin)
 NPDir=0 NMtPBC=     1 NCelOv=     1 NCel=       1 NClECP=     1 NCelD=      1
         NCelK=      1 NCelE2=     1 NClLst=     1 CellRange=     0.0.
 One-electron integrals computed using PRISM.
 NBasis=  1084 RedAO= T EigKep=  1.29D-06  NBF=  1084
 NBsUse=  1070 1.00D-06 EigRej=  8.81D-07 NBFU=  1070
 Precomputing XC quadrature grid using
 IXCGrd= 4 IRadAn=           5 IRanWt=          -1 IRanGd=           0 AccXCQ= 0.00D+00.
 Generated NRdTot=       0 NPtTot=           0 NUsed=           0 NTot=          32
 NSgBfM=   965   949   956   961   965 MxSgAt=    67 MxSgA2=    67.
 Leave Link  302 at Wed Oct  4 20:50:31 2023, MaxMem=  9395240960 cpu:              22.9 elap:               1.1
 (Enter /apps/gent/RHEL8/zen3x-ib/software/Gaussian/g16_C.01-iimpi-2020b/g16/l303.exe.bin)
 DipDrv:  MaxL=1.
 Leave Link  303 at Wed Oct  4 20:50:31 2023, MaxMem=  9395240960 cpu:               2.6 elap:               0.1
 (Enter /apps/gent/RHEL8/zen3x-ib/software/Gaussian/g16_C.01-iimpi-2020b/g16/l401.exe.bin)
 ExpMin= 3.60D-02 ExpMax= 8.59D+03 ExpMxC= 1.30D+03 IAcc=3 IRadAn=         5 AccDes= 0.00D+00
 Harris functional with IExCor=  402 and IRadAn=       5 diagonalized for initial guess.
 HarFok:  IExCor=  402 AccDes= 0.00D+00 IRadAn=         5 IDoV= 1 UseB2=F ITyADJ=14
 ICtDFT=  3500011 ScaDFX=  1.000000  1.000000  1.000000  1.000000
 FoFCou: FMM=F IPFlag=           0 FMFlag=      100000 FMFlg1=        2001
         NFxFlg=           0 DoJE=T BraDBF=F KetDBF=T FulRan=T
         wScrn=  0.000000 ICntrl=       500 IOpCl=  0 I1Cent=   200000004 NGrid=           0
         NMat0=    1 NMatS0=      1 NMatT0=    0 NMatD0=    1 NMtDS0=    0 NMtDT0=    0
 Symmetry not used in FoFCou.
 Harris En= -1756.54345280097    
 JPrj=0 DoOrth=F DoCkMO=F.
 Leave Link  401 at Wed Oct  4 20:50:34 2023, MaxMem=  9395240960 cpu:              74.3 elap:               2.5
 (Enter /apps/gent/RHEL8/zen3x-ib/software/Gaussian/g16_C.01-iimpi-2020b/g16/l508.exe.bin)
 Two-electron integral symmetry not used.
 Tight linear equation convergence will be used.
 RB3LYP wavefunction.
 Linear searches until partial convergence.
 Full line searches.
 Fock matrices will be formed incrementally for  20 cycles.
 FoFJK:  IHMeth= 1 ICntrl=       0 DoSepK=F KAlg= 0 I1Cent=           0 FoldK=F
 IRaf= 670000000 NMat=       1 IRICut=       1 DoRegI=T DoRafI=F ISym2E= 0 IDoP0=0 IntGTp=1.
 FoFCou: FMM=T IPFlag=           0 FMFlag=      100000 FMFlg1=        2001
         NFxFlg=           0 DoJE=F BraDBF=F KetDBF=F FulRan=T
         wScrn=  0.000000 ICntrl=         0 IOpCl=  0 I1Cent=           0 NGrid=           0
         NMat0=    1 NMatS0=      1 NMatT0=    0 NMatD0=    1 NMtDS0=    0 NMtDT0=    0
 Symmetry not used in FoFCou.
 FMM levels:  10  Number of levels for PrismC:   9
 Iteration   1 EE= -1755.60120894226                                    Grad=1.461D+00 Max rot=    3.6626 deg.
 Gradient too large for Newton-Raphson -- use scaled steepest descent instead.
 Alpha Gap=     0.132 HL deriv= 9.28D-03
     ILin= 1 X=0.000D+00 Y=-1.755601208942D+03 DE= 0.00D+00 F= -4.41D+00
 RMSU=  4.37D-03    CP:  9.28D-01
     ILin= 2 X=3.000D-01 Y=-1.756399301639D+03 DE=-7.98D-01 F= -8.78D-01 OKLS=F
 RMSU=  2.58D-04    CP:  9.13D-01  1.32D+00
     ILin= 3 X=4.000D-01 Y=-1.756426512351D+03 DE=-8.25D-01 F=  3.36D-01
     Accept linear search using points  2 and  3.
     An  expanding polynomial of degree  3 produced  0.3419
 RMSU=  1.27D-07    CP:  9.21D-01  1.13D+00  3.58D-01
 Iteration   2 EE= -1756.42545754514     Delta-E=       -0.824248602873 Grad=4.977D-01 Max rot=    1.1276 deg.
 Gradient too large for Newton-Raphson -- use scaled steepest descent instead.
 Alpha Gap=     0.124 HL deriv= 1.15D-02
     ILin= 1 X=0.000D+00 Y=-1.756425457545D+03 DE= 0.00D+00 F= -3.34D-01
 RMSU=  1.08D-03    CP:  9.12D-01  1.04D+00  3.39D-01 -3.00D+00
     ILin= 2 X=3.000D-01 Y=-1.756492850815D+03 DE=-6.74D-02 F= -1.16D-01 OKLS=F
 RMSU=  9.68D-05    CP:  9.05D-01  9.61D-01  4.41D-01 -3.00D+00  1.99D+00
     ILin= 3 X=6.000D-01 Y=-1.756495129249D+03 DE=-6.97D-02 F=  1.00D-01
     Accept linear search using points  2 and  3.
     An  expanding polynomial of degree  3 produced  0.4493
 RMSU=  7.27D-08    CP:  9.08D-01  1.00D+00  3.74D-01 -3.00D+00  1.50D+00
                    CP:  3.73D-01
 Iteration   3 EE= -1756.50207976238     Delta-E=       -0.076622217246 Grad=2.233D-01 Max rot=    0.5910 deg.
 Gradient too large for Newton-Raphson -- use scaled steepest descent instead.
 Alpha Gap=     0.134 HL deriv= 5.42D-03
     ILin= 1 X=0.000D+00 Y=-1.756502079762D+03 DE= 0.00D+00 F= -6.46D-02
 RMSU=  6.53D-04    CP:  9.06D-01  1.00D+00  6.74D-01 -3.00D+00  1.70D+00
                    CP:  6.58D-01 -3.00D+00
     ILin= 2 X=4.000D-01 Y=-1.756514879772D+03 DE=-1.28D-02 F=  7.31D-04 OKLS=F
 RMSU=  3.40D-05    CP:  9.06D-01  1.01D+00  9.57D-01 -3.00D+00  1.85D+00
                    CP:  1.08D+00 -3.00D+00  1.74D+00
     ILin= 3 X=7.000D-01 Y=-1.756507254099D+03 DE=-5.17D-03 F=  5.02D-02
     An  expanding polynomial of degree  3 produced  0.3951
     Minimum is close to point  2 DX= -4.94D-03 DF= -2.00D-06 DXR=  1.25D-02 DFR=  1.57D-04 which will be used.
 Iteration   4 EE= -1756.51487977163     Delta-E=       -0.012800009250 Grad=1.198D-01 Max rot=    0.2764 deg.
 Gradient too large for Newton-Raphson -- use scaled steepest descent instead.
 Alpha Gap=     0.130 HL deriv= 2.97D-03
     ILin= 1 X=0.000D+00 Y=-1.756514879772D+03 DE= 0.00D+00 F= -1.44D-02
 RMSU=  2.10D-04    CP:  8.96D-01  9.60D-01  5.53D-01 -3.00D+00  2.00D+00
                    CP:  1.02D+00 -3.00D+00  1.12D+00  1.76D-02
     ILin= 2 X=4.000D-01 Y=-1.756518027915D+03 DE=-3.15D-03 F= -1.36D-03 OKLS=F
 RMSU=  7.13D-06    CP:  8.87D-01  9.17D-01  4.59D-01 -3.00D+00  2.30D+00
                    CP:  1.50D+00 -3.00D+00  1.25D+00  9.28D-02  2.00D+00
     ILin= 3 X=8.000D-01 Y=-1.756515977415D+03 DE=-1.10D-03 F=  1.16D-02
     An  expanding polynomial of degree  3 produced  0.4422
     Minimum is close to point  2 DX=  4.22D-02 DF= -2.90D-05 DXR=  9.55D-02 DFR=  9.20D-03 which will be used.
 Iteration   5 EE= -1756.51802791545     Delta-E=       -0.003148143819 Grad=6.489D-02 Max rot=    0.1806 deg.
 Gradient too large for Newton-Raphson -- use scaled steepest descent instead.
 Alpha Gap=     0.132 HL deriv= 1.26D-03
     ILin= 1 X=0.000D+00 Y=-1.756518027915D+03 DE= 0.00D+00 F= -3.60D-03
 RMSU=  5.77D-05    CP:  8.89D-01  9.58D-01  5.49D-01 -3.00D+00  2.09D+00
                    CP:  1.26D+00 -3.00D+00  1.36D+00  3.32D-01  1.54D+00
                    CP:  4.05D-02
     ILin= 2 X=4.000D-01 Y=-1.756518898708D+03 DE=-8.71D-04 F= -7.49D-04 OKLS=F
 RMSU=  2.14D-06    CP:  8.82D-01  9.56D-01  5.53D-01 -3.00D+00  2.18D+00
                    CP:  1.52D+00 -3.00D+00  1.59D+00  7.70D-01  2.08D+00
                    CP:  3.13D-01  2.00D+00
     ILin= 3 X=8.000D-01 Y=-1.756518626242D+03 DE=-5.98D-04 F=  2.11D-03
     An  expanding polynomial of degree  3 produced  0.5047
 RMSU=  1.91D-10    CP:  8.87D-01  9.57D-01  5.49D-01 -3.00D+00  2.11D+00
                    CP:  1.32D+00 -3.00D+00  1.42D+00  4.34D-01  1.68D+00
                    CP:  8.94D-02  1.26D+00  1.65D-01
 Iteration   6 EE= -1756.51893798036     Delta-E=       -0.000910064906 Grad=3.444D-02 Max rot=    0.0970 deg.
 Gradient too large for Newton-Raphson -- use scaled steepest descent instead.
 Alpha Gap=     0.131 HL deriv= 1.52D-03
     ILin= 1 X=0.000D+00 Y=-1.756518937980D+03 DE= 0.00D+00 F= -1.37D-03
 RMSU=  3.15D-05    CP:  8.80D-01  9.42D-01  4.71D-01 -3.00D+00  2.22D+00
                    CP:  1.48D+00 -3.00D+00  1.41D+00  4.80D-01  2.31D+00
                    CP:  7.27D-01  1.70D+00  1.89D-01  3.00D+00
     ILin= 2 X=5.000D-01 Y=-1.756519161572D+03 DE=-2.24D-04 F=  4.78D-04 OKLS=T
     Accept linear search using points  1 and  2.
     An  expanding polynomial of degree  2 produced  0.2832
 RMSU=  1.48D-07    CP:  8.83D-01  9.48D-01  5.04D-01 -3.00D+00  2.18D+00
                    CP:  1.41D+00 -3.00D+00  1.42D+00  4.60D-01  2.03D+00
                    CP:  4.29D-01  1.51D+00  1.63D-01  3.00D+00  5.68D-01
 Iteration   7 EE= -1756.51917829210     Delta-E=       -0.000240311744 Grad=2.077D-02 Max rot=    0.0632 deg.
 Gradient too large for Newton-Raphson -- use scaled steepest descent instead.
 Alpha Gap=     0.131 HL deriv= 1.03D-04
     ILin= 1 X=0.000D+00 Y=-1.756519178292D+03 DE= 0.00D+00 F= -2.55D-04
 RMSU=  5.81D-06    CP:  8.78D-01  9.44D-01  4.69D-01 -3.00D+00  2.23D+00
                    CP:  1.53D+00 -3.00D+00  1.47D+00  5.92D-01  2.44D+00
                    CP:  7.88D-01  2.18D+00  2.43D-01  3.00D+00  1.00D+00
                    CP:  6.66D-02
     ILin= 2 X=5.000D-01 Y=-1.756519273350D+03 DE=-9.51D-05 F= -1.25D-04 OKLS=F
 RMSU=  2.38D-07    CP:  8.73D-01  9.39D-01  4.36D-01 -3.00D+00  2.28D+00
                    CP:  1.66D+00 -3.00D+00  1.52D+00  7.39D-01  2.84D+00
                    CP:  1.22D+00  2.85D+00  6.21D-01  3.00D+00  1.44D+00
                    CP: -3.00D+00  1.99D+00
     ILin= 3 X=1.000D+00 Y=-1.756519303505D+03 DE=-1.25D-04 F=  4.60D-06
     Accept linear search using points  2 and  3.
     An  expanding polynomial of degree  3 produced  0.8594
 RMSU=  3.88D-08    CP:  8.75D-01  9.40D-01  4.45D-01 -3.00D+00  2.26D+00
                    CP:  1.63D+00 -3.00D+00  1.51D+00  6.96D-01  2.73D+00
                    CP:  1.09D+00  2.66D+00  4.85D-01  3.00D+00  1.32D+00
                    CP: -2.19D+00  1.72D+00  5.71D-01
 Iteration   8 EE= -1756.51930158663     Delta-E=       -0.000123294523 Grad=3.549D-03 Max rot=    0.0144 deg.
 SCF Done:  E(RB3LYP) =  -1756.51930159     a.u. after    8 cycles
            Convg  =    0.3549D-02                    19 Fock formations.
              S**2 =  0.0000                  -V/T =  2.0043
 Leave Link  508 at Wed Oct  4 20:53:49 2023, MaxMem=  9395240960 cpu:            6199.3 elap:             195.1
 (Enter /apps/gent/RHEL8/zen3x-ib/software/Gaussian/g16_C.01-iimpi-2020b/g16/l502.exe.bin)
 Two-electron integral symmetry not used.
 Closed shell SCF:
 Using DIIS extrapolation, IDIIS=  1040.
 NGot=  9395240960 LenX=  9392664435 LenY=  9391397685
 Requested convergence on RMS density matrix=1.00D-08 within  32 cycles.
 Requested convergence on MAX density matrix=1.00D-06.
 Requested convergence on             energy=1.00D-06.
 No special actions if energy rises.
 Fock matrices will be formed incrementally for  20 cycles.

 Cycle   1  Pass 1  IDiag  1:
 FoFJK:  IHMeth= 1 ICntrl=       0 DoSepK=F KAlg= 0 I1Cent=           0 FoldK=F
 IRaf= 670000000 NMat=       1 IRICut=       1 DoRegI=T DoRafI=F ISym2E= 0 IDoP0=0 IntGTp=1.
 FoFCou: FMM=T IPFlag=           0 FMFlag=      100000 FMFlg1=        2001
         NFxFlg=           0 DoJE=F BraDBF=F KetDBF=F FulRan=T
         wScrn=  0.000000 ICntrl=         0 IOpCl=  0 I1Cent=           0 NGrid=           0
         NMat0=    1 NMatS0=      1 NMatT0=    0 NMatD0=    1 NMtDS0=    0 NMtDT0=    0
 Symmetry not used in FoFCou.
 FMM levels:  10  Number of levels for PrismC:   9
 E= -1756.51930158656    
 DIIS: error= 1.37D-04 at cycle   1 NSaved=   1.
 NSaved= 1 IEnMin= 1 EnMin= -1756.51930158656     IErMin= 1 ErrMin= 1.37D-04
 ErrMax= 1.37D-04  0.00D+00 EMaxC= 1.00D-01 BMatC= 6.30D-06 BMatP= 6.30D-06
 IDIUse=3 WtCom= 9.99D-01 WtEn= 1.37D-03
 Coeff-Com:  0.100D+01
 Coeff-En:   0.100D+01
 Coeff:      0.100D+01
 Gap=     0.131 Goal=   None    Shift=    0.000
 RMSDP=1.35D-04 MaxDP=2.46D-02              OVMax= 2.12D-03

 Cycle   2  Pass 1  IDiag  1:
 RMSU=  7.67D-05    CP:  9.96D-01
 E= -1756.51929945659     Delta-E=        0.000002129971 Rises=F Damp=F
 DIIS: error= 1.72D-04 at cycle   2 NSaved=   2.
 NSaved= 2 IEnMin= 1 EnMin= -1756.51930158656     IErMin= 1 ErrMin= 1.37D-04
 ErrMax= 1.72D-04  0.00D+00 EMaxC= 1.00D-01 BMatC= 1.08D-05 BMatP= 6.30D-06
 IDIUse=3 WtCom= 4.32D-01 WtEn= 5.68D-01
 Coeff-Com:  0.592D+00 0.408D+00
 Coeff-En:   0.580D+00 0.420D+00
 Coeff:      0.585D+00 0.415D+00
 Gap=     0.120 Goal=   None    Shift=    0.000
 RMSDP=1.99D-05 MaxDP=2.06D-03 DE= 2.13D-06 OVMax= 1.14D-03

 Cycle   3  Pass 1  IDiag  1:
 RMSU=  1.83D-05    CP:  9.96D-01  9.51D-01
 E= -1756.51930739483     Delta-E=       -0.000007938233 Rises=F Damp=F
 DIIS: error= 8.10D-05 at cycle   3 NSaved=   3.
 NSaved= 3 IEnMin= 3 EnMin= -1756.51930739483     IErMin= 3 ErrMin= 8.10D-05
 ErrMax= 8.10D-05  0.00D+00 EMaxC= 1.00D-01 BMatC= 2.24D-06 BMatP= 6.30D-06
 IDIUse=1 WtCom= 1.00D+00 WtEn= 0.00D+00
 Coeff-Com: -0.220D-01 0.313D+00 0.709D+00
 Coeff:     -0.220D-01 0.313D+00 0.709D+00
 Gap=     0.120 Goal=   None    Shift=    0.000
 RMSDP=8.36D-06 MaxDP=1.45D-03 DE=-7.94D-06 OVMax= 4.31D-04

 Cycle   4  Pass 1  IDiag  1:
 RMSU=  4.34D-06    CP:  9.96D-01  1.00D+00  6.89D-01
 E= -1756.51930951018     Delta-E=       -0.000002115356 Rises=F Damp=F
 DIIS: error= 7.19D-06 at cycle   4 NSaved=   4.
 NSaved= 4 IEnMin= 4 EnMin= -1756.51930951018     IErMin= 4 ErrMin= 7.19D-06
 ErrMax= 7.19D-06  0.00D+00 EMaxC= 1.00D-01 BMatC= 2.89D-08 BMatP= 2.24D-06
 IDIUse=1 WtCom= 1.00D+00 WtEn= 0.00D+00
 Coeff-Com: -0.133D-01 0.140D+00 0.337D+00 0.536D+00
 Coeff:     -0.133D-01 0.140D+00 0.337D+00 0.536D+00
 Gap=     0.120 Goal=   None    Shift=    0.000
 RMSDP=1.21D-06 MaxDP=2.51D-04 DE=-2.12D-06 OVMax= 5.68D-05

 Cycle   5  Pass 1  IDiag  1:
 RMSU=  9.74D-07    CP:  9.96D-01  1.00D+00  6.94D-01  8.42D-01
 E= -1756.51930952338     Delta-E=       -0.000000013196 Rises=F Damp=F
 DIIS: error= 5.88D-06 at cycle   5 NSaved=   5.
 NSaved= 5 IEnMin= 5 EnMin= -1756.51930952338     IErMin= 5 ErrMin= 5.88D-06
 ErrMax= 5.88D-06  0.00D+00 EMaxC= 1.00D-01 BMatC= 1.45D-08 BMatP= 2.89D-08
 IDIUse=1 WtCom= 1.00D+00 WtEn= 0.00D+00
 Coeff-Com: -0.480D-02 0.124D-01 0.503D-01 0.414D+00 0.528D+00
 Coeff:     -0.480D-02 0.124D-01 0.503D-01 0.414D+00 0.528D+00
 Gap=     0.120 Goal=   None    Shift=    0.000
 RMSDP=8.37D-07 MaxDP=9.36D-05 DE=-1.32D-08 OVMax= 2.28D-05

 Cycle   6  Pass 1  IDiag  1:
 RMSU=  4.36D-07    CP:  9.96D-01  1.01D+00  7.09D-01  9.10D-01  7.94D-01
 E= -1756.51930953572     Delta-E=       -0.000000012338 Rises=F Damp=F
 DIIS: error= 5.23D-07 at cycle   6 NSaved=   6.
 NSaved= 6 IEnMin= 6 EnMin= -1756.51930953572     IErMin= 6 ErrMin= 5.23D-07
 ErrMax= 5.23D-07  0.00D+00 EMaxC= 1.00D-01 BMatC= 3.50D-10 BMatP= 1.45D-08
 IDIUse=1 WtCom= 1.00D+00 WtEn= 0.00D+00
 Coeff-Com: -0.859D-03-0.818D-02-0.915D-02 0.149D+00 0.211D+00 0.658D+00
 Coeff:     -0.859D-03-0.818D-02-0.915D-02 0.149D+00 0.211D+00 0.658D+00
 Gap=     0.120 Goal=   None    Shift=    0.000
 RMSDP=2.05D-07 MaxDP=2.63D-05 DE=-1.23D-08 OVMax= 6.43D-06

 Cycle   7  Pass 1  IDiag  1:
 RMSU=  1.24D-07    CP:  9.96D-01  1.01D+00  7.05D-01  9.35D-01  8.13D-01
                    CP:  8.06D-01
 E= -1756.51930953627     Delta-E=       -0.000000000556 Rises=F Damp=F
 DIIS: error= 4.37D-07 at cycle   7 NSaved=   7.
 NSaved= 7 IEnMin= 7 EnMin= -1756.51930953627     IErMin= 7 ErrMin= 4.37D-07
 ErrMax= 4.37D-07  0.00D+00 EMaxC= 1.00D-01 BMatC= 1.80D-10 BMatP= 3.50D-10
 IDIUse=1 WtCom= 1.00D+00 WtEn= 0.00D+00
 Coeff-Com:  0.239D-03-0.705D-02-0.129D-01 0.327D-01 0.435D-01 0.444D+00
 Coeff-Com:  0.499D+00
 Coeff:      0.239D-03-0.705D-02-0.129D-01 0.327D-01 0.435D-01 0.444D+00
 Coeff:      0.499D+00
 Gap=     0.120 Goal=   None    Shift=    0.000
 RMSDP=9.14D-08 MaxDP=2.06D-05 DE=-5.56D-10 OVMax= 3.84D-06

 Cycle   8  Pass 1  IDiag  1:
 RMSU=  4.46D-08    CP:  9.96D-01  1.01D+00  7.06D-01  9.45D-01  7.93D-01
                    CP:  8.44D-01  6.22D-01
 E= -1756.51930953665     Delta-E=       -0.000000000381 Rises=F Damp=F
 DIIS: error= 1.77D-07 at cycle   8 NSaved=   8.
 NSaved= 8 IEnMin= 8 EnMin= -1756.51930953665     IErMin= 8 ErrMin= 1.77D-07
 ErrMax= 1.77D-07  0.00D+00 EMaxC= 1.00D-01 BMatC= 1.17D-11 BMatP= 1.80D-10
 IDIUse=1 WtCom= 1.00D+00 WtEn= 0.00D+00
 Coeff-Com:  0.194D-03-0.370D-02-0.716D-02 0.735D-02 0.670D-02 0.218D+00
 Coeff-Com:  0.299D+00 0.479D+00
 Coeff:      0.194D-03-0.370D-02-0.716D-02 0.735D-02 0.670D-02 0.218D+00
 Coeff:      0.299D+00 0.479D+00
 Gap=     0.120 Goal=   None    Shift=    0.000
 RMSDP=2.32D-08 MaxDP=2.53D-06 DE=-3.81D-10 OVMax= 1.17D-06

 Cycle   9  Pass 1  IDiag  1:
 RMSU=  1.50D-08    CP:  9.96D-01  1.01D+00  7.06D-01  9.46D-01  8.03D-01
                    CP:  8.47D-01  6.44D-01  7.57D-01
 E= -1756.51930953681     Delta-E=       -0.000000000156 Rises=F Damp=F
 DIIS: error= 5.76D-08 at cycle   9 NSaved=   9.
 NSaved= 9 IEnMin= 9 EnMin= -1756.51930953681     IErMin= 9 ErrMin= 5.76D-08
 ErrMax= 5.76D-08  0.00D+00 EMaxC= 1.00D-01 BMatC= 1.57D-12 BMatP= 1.17D-11
 IDIUse=1 WtCom= 1.00D+00 WtEn= 0.00D+00
 Coeff-Com:  0.773D-04-0.957D-03-0.194D-02-0.513D-03-0.343D-02 0.533D-01
 Coeff-Com:  0.901D-01 0.295D+00 0.568D+00
 Coeff:      0.773D-04-0.957D-03-0.194D-02-0.513D-03-0.343D-02 0.533D-01
 Coeff:      0.901D-01 0.295D+00 0.568D+00
 Gap=     0.120 Goal=   None    Shift=    0.000
 RMSDP=8.07D-09 MaxDP=1.53D-06 DE=-1.56D-10 OVMax= 3.59D-07

 Cycle  10  Pass 1  IDiag  1:
 RMSU=  4.67D-09    CP:  9.96D-01  1.01D+00  7.06D-01  9.45D-01  8.01D-01
                    CP:  8.54D-01  6.36D-01  7.57D-01  7.50D-01
 E= -1756.51930953620     Delta-E=        0.000000000611 Rises=F Damp=F
 DIIS: error= 1.60D-08 at cycle  10 NSaved=  10.
 NSaved=10 IEnMin= 9 EnMin= -1756.51930953681     IErMin=10 ErrMin= 1.60D-08
 ErrMax= 1.60D-08  0.00D+00 EMaxC= 1.00D-01 BMatC= 1.44D-13 BMatP= 1.57D-12
 IDIUse=1 WtCom= 1.00D+00 WtEn= 0.00D+00
 Coeff-Com:  0.287D-04-0.254D-03-0.561D-03-0.117D-02-0.295D-02 0.123D-01
 Coeff-Com:  0.272D-01 0.129D+00 0.323D+00 0.513D+00
 Coeff:      0.287D-04-0.254D-03-0.561D-03-0.117D-02-0.295D-02 0.123D-01
 Coeff:      0.272D-01 0.129D+00 0.323D+00 0.513D+00
 Gap=     0.120 Goal=   None    Shift=    0.000
 RMSDP=3.81D-09 MaxDP=9.02D-07 DE= 6.11D-10 OVMax= 1.23D-07

 SCF Done:  E(RB3LYP) =  -1756.51930954     A.U. after   10 cycles
            NFock= 10  Conv=0.38D-08     -V/T= 2.0043
 KE= 1.749006247847D+03 PE=-1.172691085006D+04 EE= 4.402040204068D+03
 Leave Link  502 at Wed Oct  4 20:55:28 2023, MaxMem=  9395240960 cpu:            3119.2 elap:              99.3
 (Enter /apps/gent/RHEL8/zen3x-ib/software/Gaussian/g16_C.01-iimpi-2020b/g16/l508.exe.bin)
 QCSCF skips out because SCF is already converged.
 Leave Link  508 at Wed Oct  4 20:55:28 2023, MaxMem=  9395240960 cpu:               0.0 elap:               0.0
 (Enter /apps/gent/RHEL8/zen3x-ib/software/Gaussian/g16_C.01-iimpi-2020b/g16/l801.exe.bin)
 DoSCS=F DFT=T ScalE2(SS,OS)=  1.000000  1.000000
 Range of M.O.s used for correlation:     1  1070
 NBasis=  1084 NAE=   141 NBE=   141 NFC=     0 NFV=     0
 NROrb=   1070 NOA=   141 NOB=   141 NVA=   929 NVB=   929

 **** Warning!!: The largest alpha MO coefficient is  0.12470008D+03

 Leave Link  801 at Wed Oct  4 20:55:28 2023, MaxMem=  9395240960 cpu:               0.4 elap:               0.0
 (Enter /apps/gent/RHEL8/zen3x-ib/software/Gaussian/g16_C.01-iimpi-2020b/g16/l1101.exe.bin)
 Using compressed storage, NAtomX=    67.
 Will process     68 centers per pass.
 R6Disp: Adding Grimme-D3 dispersion energy 1st derivatives to the gradient.
 Leave Link 1101 at Wed Oct  4 20:55:31 2023, MaxMem=  9395240960 cpu:              68.4 elap:               2.9
 (Enter /apps/gent/RHEL8/zen3x-ib/software/Gaussian/g16_C.01-iimpi-2020b/g16/l1102.exe.bin)
 Symmetrizing basis deriv contribution to polar:
 IMax=3 JMax=2 DiffMx= 0.00D+00
 Leave Link 1102 at Wed Oct  4 20:55:31 2023, MaxMem=  9395240960 cpu:               2.9 elap:               0.1
 (Enter /apps/gent/RHEL8/zen3x-ib/software/Gaussian/g16_C.01-iimpi-2020b/g16/l1110.exe.bin)
 Forming Gx(P) for the SCF density, NAtomX=    67.
 Integral derivatives from FoFJK, PRISM(SPDF).
 Do as many integral derivatives as possible in FoFJK.
 G2DrvN: MDV=    9395234057.
 G2DrvN: will do    68 centers at a time, making    1 passes.
 Calling FoFCou, ICntrl=  3107 FMM=T I1Cent=   0 AccDes= 0.00D+00.
 FoFJK:  IHMeth= 1 ICntrl=    3107 DoSepK=F KAlg= 0 I1Cent=           0 FoldK=F
 IRaf=         0 NMat=       1 IRICut=       1 DoRegI=T DoRafI=F ISym2E= 0 IDoP0=0 IntGTp=1.
 FoFCou: FMM=T IPFlag=           0 FMFlag=      100000 FMFlg1=        2001
         NFxFlg=           0 DoJE=F BraDBF=F KetDBF=F FulRan=T
         wScrn=  0.000000 ICntrl=      3107 IOpCl=  0 I1Cent=           0 NGrid=           0
         NMat0=    1 NMatS0=      1 NMatT0=    0 NMatD0=    1 NMtDS0=    0 NMtDT0=    0
 Symmetry not used in FoFCou.
 FMM levels:  10  Number of levels for PrismC:   9
 End of G2Drv F.D. properties file   721 does not exist.
 End of G2Drv F.D. properties file   722 does not exist.
 End of G2Drv F.D. properties file   788 does not exist.
 Leave Link 1110 at Wed Oct  4 21:01:50 2023, MaxMem=  9395240960 cpu:           11947.0 elap:             378.5
 (Enter /apps/gent/RHEL8/zen3x-ib/software/Gaussian/g16_C.01-iimpi-2020b/g16/l1002.exe.bin)
 Minotr:  Closed shell wavefunction.
          IDoAtm=11111111111111111111111111111111111111111111111111
          IDoAtm=11111111111111111
          Direct CPHF calculation.
          Differentiating once with respect to electric field.
                with respect to dipole field.
          Differentiating once with respect to nuclear coordinates.
          Requested convergence is 1.0D-08 RMS, and 1.0D-07 maximum.
          Secondary convergence is 1.0D-12 RMS, and 1.0D-12 maximum.
          NewPWx=T KeepS1=F KeepF1=F KeepIn=T MapXYZ=F SortEE=F KeepMc=T.
        21178 words used for storage of precomputed grid.
 Two-electron integral symmetry not used.
          MDV=    9395240960 using IRadAn=       1.
          Solving linear equations simultaneously, MaxMat=      96.
 FoF2E skips out because all densities are zero.
 CalDSu exits because no D1Ps are significant.
 FoFJK:  IHMeth= 1 ICntrl=       0 DoSepK=F KAlg= 0 I1Cent=           0 FoldK=F
 IRaf= 670000000 NMat=      96 IRICut=       1 DoRegI=T DoRafI=F ISym2E= 0 IDoP0=3 IntGTp=3.
 FoFCou: FMM=T IPFlag=           0 FMFlag=      100000 FMFlg1=        2001
         NFxFlg=           0 DoJE=F BraDBF=F KetDBF=F FulRan=T
         wScrn=  0.000000 ICntrl=         0 IOpCl=  0 I1Cent=           0 NGrid=           0
         NMat0=   96 NMatS0=     96 NMatT0=    0 NMatD0=   96 NMtDS0=    0 NMtDT0=    0
 Symmetry not used in FoFCou.
 FMM levels:  10  Number of levels for PrismC:   9
          There are   204 degrees of freedom in the 1st order CPHF.  IDoFFX=6 NUNeed=     3.
    201 vectors produced by pass  0 Test12= 1.31D-13 1.00D-09 XBig12= 1.47D+03 2.62D+01.
 AX will form    96 AO Fock derivatives at one time.
    201 vectors produced by pass  1 Test12= 1.31D-13 1.00D-09 XBig12= 2.68D+02 4.41D+00.
    201 vectors produced by pass  2 Test12= 1.31D-13 1.00D-09 XBig12= 2.19D+00 2.04D-01.
    201 vectors produced by pass  3 Test12= 1.31D-13 1.00D-09 XBig12= 8.94D-03 4.95D-03.
    201 vectors produced by pass  4 Test12= 1.31D-13 1.00D-09 XBig12= 2.97D-05 2.45D-04.
    195 vectors produced by pass  5 Test12= 1.31D-13 1.00D-09 XBig12= 4.66D-08 9.50D-06.
     75 vectors produced by pass  6 Test12= 1.31D-13 1.00D-09 XBig12= 6.65D-11 4.60D-07.
      3 vectors produced by pass  7 Test12= 1.31D-13 1.00D-09 XBig12= 9.91D-14 1.74D-08.
 InvSVY:  IOpt=1 It=  1 EMax= 1.99D-13
 Solved reduced A of dimension  1278 with   204 vectors.
 FullF1:  Do perturbations      1 to       3.
 Isotropic polarizability for W=    0.000000      634.33 Bohr**3.
 End of Minotr F.D. properties file   721 does not exist.
 End of Minotr F.D. properties file   722 does not exist.
 End of Minotr F.D. properties file   788 does not exist.
 Leave Link 1002 at Wed Oct  4 21:42:06 2023, MaxMem=  9395240960 cpu:           76125.8 elap:            2416.0
 (Enter /apps/gent/RHEL8/zen3x-ib/software/Gaussian/g16_C.01-iimpi-2020b/g16/l601.exe.bin)
 Copying SCF densities to generalized density rwf, IOpCl= 0 IROHF=0.

 **********************************************************************

            Population analysis using the SCF Density.

 **********************************************************************

 Alpha  occ. eigenvalues --  -19.09431 -19.09425 -19.09398 -14.37084 -14.37005
 Alpha  occ. eigenvalues --  -14.36990 -14.32235 -10.25429 -10.25416 -10.25401
 Alpha  occ. eigenvalues --  -10.24028 -10.24018 -10.23986 -10.23654 -10.23630
 Alpha  occ. eigenvalues --  -10.23518 -10.22978 -10.21709 -10.19649 -10.19227
 Alpha  occ. eigenvalues --  -10.19144 -10.19062 -10.19032 -10.19001 -10.18995
 Alpha  occ. eigenvalues --  -10.18975 -10.18944 -10.18925 -10.18917 -10.18900
 Alpha  occ. eigenvalues --  -10.18891 -10.18885 -10.18858 -10.18763 -10.18677
 Alpha  occ. eigenvalues --  -10.18603 -10.18341 -10.18315 -10.17453 -10.17440
 Alpha  occ. eigenvalues --  -10.17432  -1.03231  -1.02480  -1.02461  -0.98208
 Alpha  occ. eigenvalues --   -0.98171  -0.97949  -0.95050  -0.87553  -0.86932
 Alpha  occ. eigenvalues --   -0.86904  -0.86170  -0.82549  -0.79666  -0.79499
 Alpha  occ. eigenvalues --   -0.77972  -0.76844  -0.76587  -0.76552  -0.76319
 Alpha  occ. eigenvalues --   -0.75999  -0.74199  -0.73821  -0.69255  -0.67117
 Alpha  occ. eigenvalues --   -0.66038  -0.65310  -0.63668  -0.63500  -0.63316
 Alpha  occ. eigenvalues --   -0.62329  -0.61650  -0.61152  -0.60937  -0.58757
 Alpha  occ. eigenvalues --   -0.58533  -0.57623  -0.57244  -0.55732  -0.55721
 Alpha  occ. eigenvalues --   -0.55021  -0.53117  -0.52334  -0.51230  -0.50636
 Alpha  occ. eigenvalues --   -0.49100  -0.48966  -0.48546  -0.47899  -0.46523
 Alpha  occ. eigenvalues --   -0.46149  -0.46034  -0.45769  -0.45453  -0.45362
 Alpha  occ. eigenvalues --   -0.45040  -0.44845  -0.44759  -0.44091  -0.43952
 Alpha  occ. eigenvalues --   -0.43933  -0.43873  -0.43594  -0.43138  -0.43103
 Alpha  occ. eigenvalues --   -0.42512  -0.42403  -0.41528  -0.41293  -0.41118
 Alpha  occ. eigenvalues --   -0.40344  -0.40107  -0.39941  -0.38654  -0.38482
 Alpha  occ. eigenvalues --   -0.37804  -0.37775  -0.37528  -0.37037  -0.36238
 Alpha  occ. eigenvalues --   -0.36194  -0.36022  -0.35897  -0.35855  -0.35787
 Alpha  occ. eigenvalues --   -0.33944  -0.29514  -0.27791  -0.27573  -0.27354
 Alpha  occ. eigenvalues --   -0.27156  -0.27130  -0.27096  -0.26737  -0.26658
 Alpha  occ. eigenvalues --   -0.26638  -0.25493  -0.24571  -0.23304  -0.21354
 Alpha  occ. eigenvalues --   -0.20773
 Alpha virt. eigenvalues --   -0.08743  -0.07381  -0.06035  -0.05431  -0.02836
 Alpha virt. eigenvalues --   -0.02789  -0.02761  -0.02636  -0.01064  -0.00874
 Alpha virt. eigenvalues --   -0.00712  -0.00310  -0.00249  -0.00167   0.00005
 Alpha virt. eigenvalues --    0.00282   0.00594   0.00773   0.01081   0.01338
 Alpha virt. eigenvalues --    0.01909   0.01994   0.02466   0.02718   0.02939
 Alpha virt. eigenvalues --    0.03041   0.03500   0.03894   0.03972   0.04078
 Alpha virt. eigenvalues --    0.04317   0.04476   0.05110   0.05162   0.05353
 Alpha virt. eigenvalues --    0.05500   0.05610   0.05855   0.06168   0.06328
 Alpha virt. eigenvalues --    0.06449   0.06510   0.06718   0.07138   0.07421
 Alpha virt. eigenvalues --    0.07649   0.08055   0.08134   0.08255   0.08658
 Alpha virt. eigenvalues --    0.08736   0.08881   0.08993   0.09147   0.09641
 Alpha virt. eigenvalues --    0.09782   0.09953   0.10295   0.10337   0.10369
 Alpha virt. eigenvalues --    0.10769   0.10908   0.10970   0.11207   0.11373
 Alpha virt. eigenvalues --    0.11448   0.11554   0.11600   0.11749   0.11818
 Alpha virt. eigenvalues --    0.11878   0.11987   0.12015   0.12229   0.12383
 Alpha virt. eigenvalues --    0.12497   0.12636   0.12676   0.12751   0.12806
 Alpha virt. eigenvalues --    0.13013   0.13192   0.13356   0.13433   0.13456
 Alpha virt. eigenvalues --    0.13512   0.13560   0.13673   0.13797   0.13861
 Alpha virt. eigenvalues --    0.14093   0.14288   0.14449   0.14683   0.14893
 Alpha virt. eigenvalues --    0.15020   0.15228   0.15260   0.15707   0.15927
 Alpha virt. eigenvalues --    0.15983   0.16084   0.16151   0.16479   0.16629
 Alpha virt. eigenvalues --    0.16714   0.16937   0.17144   0.17369   0.17616
 Alpha virt. eigenvalues --    0.17647   0.17790   0.18120   0.18423   0.18613
 Alpha virt. eigenvalues --    0.18744   0.18836   0.18925   0.19026   0.19097
 Alpha virt. eigenvalues --    0.19252   0.19378   0.19607   0.19716   0.19840
 Alpha virt. eigenvalues --    0.20027   0.20125   0.20176   0.20409   0.20546
 Alpha virt. eigenvalues --    0.20685   0.20904   0.21161   0.21449   0.21568
 Alpha virt. eigenvalues --    0.21886   0.22119   0.22230   0.22261   0.22372
 Alpha virt. eigenvalues --    0.22553   0.22746   0.23012   0.23169   0.23320
 Alpha virt. eigenvalues --    0.23923   0.23977   0.24316   0.24557   0.24570
 Alpha virt. eigenvalues --    0.24835   0.24944   0.25166   0.25279   0.25361
 Alpha virt. eigenvalues --    0.25517   0.25673   0.25831   0.26090   0.26143
 Alpha virt. eigenvalues --    0.26267   0.26469   0.26595   0.26799   0.26866
 Alpha virt. eigenvalues --    0.27041   0.27267   0.27338   0.27401   0.27504
 Alpha virt. eigenvalues --    0.27641   0.28098   0.28232   0.28364   0.28610
 Alpha virt. eigenvalues --    0.28693   0.28826   0.28975   0.29110   0.29246
 Alpha virt. eigenvalues --    0.29487   0.29651   0.29822   0.29963   0.30159
 Alpha virt. eigenvalues --    0.30485   0.30818   0.30856   0.31084   0.31201
 Alpha virt. eigenvalues --    0.31254   0.31413   0.31809   0.32296   0.32668
 Alpha virt. eigenvalues --    0.32915   0.32979   0.33092   0.33316   0.33378
 Alpha virt. eigenvalues --    0.33486   0.33537   0.33762   0.34021   0.34060
 Alpha virt. eigenvalues --    0.34188   0.34441   0.34626   0.34675   0.34907
 Alpha virt. eigenvalues --    0.35284   0.35466   0.35571   0.35781   0.36092
 Alpha virt. eigenvalues --    0.36254   0.36541   0.36657   0.36920   0.37099
 Alpha virt. eigenvalues --    0.37528   0.37620   0.37759   0.38318   0.38590
 Alpha virt. eigenvalues --    0.38924   0.39056   0.39424   0.40101   0.40712
 Alpha virt. eigenvalues --    0.40829   0.41599   0.41972   0.42282   0.42515
 Alpha virt. eigenvalues --    0.43163   0.43306   0.43735   0.44130   0.44957
 Alpha virt. eigenvalues --    0.45544   0.45572   0.46100   0.46912   0.47347
 Alpha virt. eigenvalues --    0.47646   0.48005   0.48480   0.49472   0.50046
 Alpha virt. eigenvalues --    0.50383   0.50555   0.51710   0.51987   0.52381
 Alpha virt. eigenvalues --    0.52571   0.52773   0.52929   0.53085   0.53470
 Alpha virt. eigenvalues --    0.53787   0.53858   0.53980   0.54056   0.54433
 Alpha virt. eigenvalues --    0.54709   0.54840   0.55171   0.55444   0.55505
 Alpha virt. eigenvalues --    0.55658   0.55726   0.56163   0.56407   0.56494
 Alpha virt. eigenvalues --    0.56872   0.56976   0.57131   0.57373   0.57440
 Alpha virt. eigenvalues --    0.57596   0.57708   0.57973   0.58120   0.58501
 Alpha virt. eigenvalues --    0.58701   0.59052   0.59246   0.59385   0.59504
 Alpha virt. eigenvalues --    0.59760   0.59877   0.59917   0.60341   0.60560
 Alpha virt. eigenvalues --    0.61083   0.61773   0.62130   0.62444   0.63270
 Alpha virt. eigenvalues --    0.63475   0.63886   0.64211   0.64286   0.64620
 Alpha virt. eigenvalues --    0.64761   0.64998   0.65087   0.65383   0.66050
 Alpha virt. eigenvalues --    0.66432   0.66862   0.67002   0.67256   0.67611
 Alpha virt. eigenvalues --    0.67772   0.68236   0.68274   0.69033   0.69083
 Alpha virt. eigenvalues --    0.69179   0.69770   0.69909   0.70742   0.70925
 Alpha virt. eigenvalues --    0.71331   0.71446   0.71686   0.71818   0.72323
 Alpha virt. eigenvalues --    0.72596   0.72857   0.72885   0.73213   0.73663
 Alpha virt. eigenvalues --    0.73756   0.73988   0.74630   0.74844   0.75104
 Alpha virt. eigenvalues --    0.75631   0.75845   0.76378   0.76761   0.77029
 Alpha virt. eigenvalues --    0.77093   0.77328   0.77701   0.78871   0.79005
 Alpha virt. eigenvalues --    0.79136   0.79578   0.80255   0.80828   0.81894
 Alpha virt. eigenvalues --    0.82445   0.82619   0.82963   0.83022   0.83382
 Alpha virt. eigenvalues --    0.83834   0.84154   0.84291   0.84516   0.84603
 Alpha virt. eigenvalues --    0.84849   0.85955   0.86019   0.86516   0.86721
 Alpha virt. eigenvalues --    0.86838   0.87245   0.87446   0.87496   0.87618
 Alpha virt. eigenvalues --    0.88134   0.88394   0.88687   0.88996   0.89173
 Alpha virt. eigenvalues --    0.89807   0.90150   0.90648   0.90883   0.90965
 Alpha virt. eigenvalues --    0.91370   0.91710   0.91988   0.92275   0.92624
 Alpha virt. eigenvalues --    0.92859   0.93087   0.93478   0.93897   0.94607
 Alpha virt. eigenvalues --    0.94704   0.94864   0.95872   0.96417   0.96551
 Alpha virt. eigenvalues --    0.96714   0.97334   0.97711   0.97987   0.98443
 Alpha virt. eigenvalues --    0.98486   0.99064   0.99557   0.99622   0.99709
 Alpha virt. eigenvalues --    0.99955   1.00328   1.00705   1.01246   1.01791
 Alpha virt. eigenvalues --    1.02634   1.02651   1.02899   1.03231   1.03769
 Alpha virt. eigenvalues --    1.03948   1.04518   1.04809   1.05281   1.05637
 Alpha virt. eigenvalues --    1.06100   1.06188   1.06417   1.06890   1.07023
 Alpha virt. eigenvalues --    1.07230   1.07317   1.07646   1.08130   1.08240
 Alpha virt. eigenvalues --    1.08292   1.08689   1.09198   1.10234   1.10639
 Alpha virt. eigenvalues --    1.10938   1.11659   1.11920   1.12380   1.12543
 Alpha virt. eigenvalues --    1.12778   1.13029   1.13106   1.13458   1.14403
 Alpha virt. eigenvalues --    1.14491   1.14956   1.15189   1.15807   1.16893
 Alpha virt. eigenvalues --    1.17531   1.18305   1.19705   1.19820   1.19917
 Alpha virt. eigenvalues --    1.20604   1.21399   1.21960   1.23608   1.24691
 Alpha virt. eigenvalues --    1.25220   1.26109   1.26161   1.27298   1.29673
 Alpha virt. eigenvalues --    1.30049   1.30736   1.31356   1.32426   1.33454
 Alpha virt. eigenvalues --    1.33549   1.34131   1.34267   1.34768   1.35181
 Alpha virt. eigenvalues --    1.36267   1.36760   1.37764   1.38725   1.40745
 Alpha virt. eigenvalues --    1.43334   1.43830   1.46418   1.48593   1.49159
 Alpha virt. eigenvalues --    1.49392   1.49517   1.50025   1.50467   1.50787
 Alpha virt. eigenvalues --    1.50934   1.51008   1.51551   1.51944   1.52009
 Alpha virt. eigenvalues --    1.52111   1.52425   1.53008   1.53578   1.54041
 Alpha virt. eigenvalues --    1.54228   1.55289   1.55458   1.55488   1.55574
 Alpha virt. eigenvalues --    1.55763   1.55792   1.55905   1.56085   1.56108
 Alpha virt. eigenvalues --    1.56118   1.56205   1.56384   1.57499   1.57596
 Alpha virt. eigenvalues --    1.57879   1.58323   1.59131   1.59499   1.59699
 Alpha virt. eigenvalues --    1.61524   1.61669   1.61807   1.63411   1.63577
 Alpha virt. eigenvalues --    1.64246   1.64997   1.65200   1.65358   1.65437
 Alpha virt. eigenvalues --    1.65513   1.65755   1.66609   1.66768   1.66893
 Alpha virt. eigenvalues --    1.67894   1.68130   1.68449   1.69128   1.72314
 Alpha virt. eigenvalues --    1.72824   1.72970   1.73085   1.73838   1.74094
 Alpha virt. eigenvalues --    1.74098   1.74546   1.74709   1.75874   1.76330
 Alpha virt. eigenvalues --    1.76372   1.76554   1.76717   1.77390   1.77707
 Alpha virt. eigenvalues --    1.78143   1.79070   1.79478   1.80232   1.81327
 Alpha virt. eigenvalues --    1.81600   1.82034   1.82531   1.82689   1.83049
 Alpha virt. eigenvalues --    1.83473   1.85682   1.86114   1.86364   1.86456
 Alpha virt. eigenvalues --    1.86799   1.87357   1.88027   1.88558   1.89699
 Alpha virt. eigenvalues --    1.90042   1.90139   1.90727   1.91370   1.91682
 Alpha virt. eigenvalues --    1.91788   1.91827   1.91949   1.92296   1.93725
 Alpha virt. eigenvalues --    1.94281   1.94697   1.94770   1.94945   1.95049
 Alpha virt. eigenvalues --    1.95079   1.95955   1.96298   1.96629   1.96795
 Alpha virt. eigenvalues --    1.97000   1.97457   1.97952   1.98242   1.98637
 Alpha virt. eigenvalues --    1.99767   2.00214   2.00415   2.00915   2.01368
 Alpha virt. eigenvalues --    2.01523   2.02503   2.03000   2.03416   2.04339
 Alpha virt. eigenvalues --    2.05188   2.05386   2.05589   2.05943   2.06362
 Alpha virt. eigenvalues --    2.06829   2.07200   2.07363   2.07878   2.07952
 Alpha virt. eigenvalues --    2.08933   2.09400   2.10471   2.12118   2.14117
 Alpha virt. eigenvalues --    2.15663   2.16121   2.18010   2.18543   2.19029
 Alpha virt. eigenvalues --    2.19236   2.20807   2.21407   2.24060   2.24365
 Alpha virt. eigenvalues --    2.25133   2.25258   2.25537   2.27076   2.27450
 Alpha virt. eigenvalues --    2.27683   2.29173   2.29350   2.30440   2.30945
 Alpha virt. eigenvalues --    2.33762   2.35141   2.35608   2.38038   2.40699
 Alpha virt. eigenvalues --    2.41121   2.41444   2.42567   2.42942   2.43404
 Alpha virt. eigenvalues --    2.43527   2.44808   2.45449   2.45521   2.46107
 Alpha virt. eigenvalues --    2.46190   2.46774   2.47021   2.47157   2.47196
 Alpha virt. eigenvalues --    2.47263   2.47944   2.48169   2.50492   2.50565
 Alpha virt. eigenvalues --    2.51662   2.52664   2.53967   2.54184   2.54988
 Alpha virt. eigenvalues --    2.56172   2.56366   2.56905   2.58340   2.61760
 Alpha virt. eigenvalues --    2.62300   2.63061   2.63707   2.64043   2.64631
 Alpha virt. eigenvalues --    2.64899   2.65029   2.65368   2.65556   2.65611
 Alpha virt. eigenvalues --    2.66049   2.66480   2.66667   2.69371   2.69960
 Alpha virt. eigenvalues --    2.70145   2.70256   2.70801   2.70865   2.71170
 Alpha virt. eigenvalues --    2.71907   2.72359   2.72384   2.72676   2.72920
 Alpha virt. eigenvalues --    2.73168   2.73489   2.73594   2.73871   2.74253
 Alpha virt. eigenvalues --    2.74508   2.74551   2.75500   2.76274   2.76545
 Alpha virt. eigenvalues --    2.76910   2.77920   2.77993   2.78125   2.78373
 Alpha virt. eigenvalues --    2.79357   2.79836   2.80037   2.80504   2.80745
 Alpha virt. eigenvalues --    2.81178   2.81404   2.81638   2.82019   2.82589
 Alpha virt. eigenvalues --    2.82962   2.83543   2.83992   2.84467   2.84726
 Alpha virt. eigenvalues --    2.85130   2.85690   2.85987   2.86115   2.86745
 Alpha virt. eigenvalues --    2.87044   2.87219   2.87382   2.87592   2.88759
 Alpha virt. eigenvalues --    2.89302   2.89439   2.90039   2.91035   2.92009
 Alpha virt. eigenvalues --    2.92125   2.92830   2.93175   2.94074   2.94305
 Alpha virt. eigenvalues --    2.94691   2.94861   2.96077   2.98159   2.98462
 Alpha virt. eigenvalues --    2.98977   3.01481   3.03069   3.03610   3.04608
 Alpha virt. eigenvalues --    3.05984   3.06247   3.06830   3.06918   3.07199
 Alpha virt. eigenvalues --    3.07271   3.07569   3.08023   3.11330   3.13185
 Alpha virt. eigenvalues --    3.14094   3.14429   3.17158   3.18617   3.18975
 Alpha virt. eigenvalues --    3.19328   3.22375   3.23100   3.25811   3.26878
 Alpha virt. eigenvalues --    3.26964   3.28283   3.30306   3.30328   3.33358
 Alpha virt. eigenvalues --    3.33414   3.33606   3.33990   3.34233   3.35584
 Alpha virt. eigenvalues --    3.35763   3.36261   3.36752   3.37491   3.38491
 Alpha virt. eigenvalues --    3.39483   3.39886   3.40875   3.46274   3.47489
 Alpha virt. eigenvalues --    3.47765   3.49455   3.50804   3.51255   3.52256
 Alpha virt. eigenvalues --    3.53503   3.54711   3.54903   3.55060   3.57380
 Alpha virt. eigenvalues --    3.57646   3.58117   3.59623   3.59884   3.61622
 Alpha virt. eigenvalues --    3.62240   3.64383   3.66076   3.67705   3.69262
 Alpha virt. eigenvalues --    3.71454   3.75638   3.75797   3.78700   3.83040
 Alpha virt. eigenvalues --    3.83273   3.86418   3.88189   3.88785   3.89171
 Alpha virt. eigenvalues --    3.90116   3.92107   3.95377   3.97693   3.97982
 Alpha virt. eigenvalues --    3.99802   4.00091   4.00162   4.01665   4.03134
 Alpha virt. eigenvalues --    4.05023   4.05122   4.13709   4.15301   4.15547
 Alpha virt. eigenvalues --    4.15686   4.16259   4.17862   4.17992   4.20617
 Alpha virt. eigenvalues --    4.25349   4.25433   4.32402   4.34698   4.44808
 Alpha virt. eigenvalues --    4.45101   4.48940   4.75692   4.83383   4.84282
 Alpha virt. eigenvalues --    4.84515   4.84898   4.87503   4.87573   4.89787
 Alpha virt. eigenvalues --    5.07731   5.07829   5.10076   5.13945   5.18732
 Alpha virt. eigenvalues --    5.23246   5.28679   5.38055   5.38762   5.39403
 Alpha virt. eigenvalues --    5.80735   5.86061   5.86086  23.59675  23.61554
 Alpha virt. eigenvalues --   23.64019  23.67082  23.72937  23.86701  23.86906
 Alpha virt. eigenvalues --   23.92244  23.92295  23.94739  23.94953  23.95348
 Alpha virt. eigenvalues --   23.95667  23.95893  23.96030  23.96290  23.96439
 Alpha virt. eigenvalues --   23.96608  23.97318  24.02830  24.05602  24.05949
 Alpha virt. eigenvalues --   24.05987  24.08991  24.09141  24.09495  24.09504
 Alpha virt. eigenvalues --   24.09534  24.10270  24.10835  24.17890  24.18150
 Alpha virt. eigenvalues --   24.18560  24.18629  35.66118  35.67074  35.67461
 Alpha virt. eigenvalues --   35.69921  50.05577  50.05627  50.13230
          Condensed to atoms (all electrons):
 Mulliken charges:
               1
     1  C   -0.593311
     2  C   -0.250818
     3  C   -0.272031
     4  C    0.541188
     5  C   -0.219709
     6  C    0.114762
     7  H    0.205667
     8  H    0.147824
     9  H    0.127704
    10  H    0.192832
    11  N    0.220841
    12  C   -0.344073
    13  C    0.947065
    14  C   -0.536946
    15  C   -0.382912
    16  C   -0.377142
    17  C   -0.195610
    18  C   -0.299392
    19  N    0.145774
    20  C   -0.248372
    21  C    0.180038
    22  C   -0.522389
    23  C    0.213573
    24  C   -0.458149
    25  C    0.071196
    26  C   -0.312953
    27  O   -0.312192
    28  O   -0.303496
    29  O   -0.307826
    30  C   -0.364303
    31  C   -0.372115
    32  H    0.268810
    33  H    0.493915
    34  H    0.087007
    35  N    0.153208
    36  H    0.246521
    37  N    0.167261
    38  H    0.270541
    39  C   -0.191602
    40  H    0.473977
    41  C   -0.128553
    42  H    0.476181
    43  C   -0.206900
    44  C    0.351894
    45  C    0.441915
    46  C   -0.301547
    47  H    0.145060
    48  C   -0.165830
    49  C   -0.133315
    50  H    0.101718
    51  C   -0.348034
    52  H    0.182773
    53  C   -0.143498
    54  H    0.108671
    55  C   -0.364962
    56  H    0.191994
    57  C   -0.292599
    58  H    0.145476
    59  H    0.149082
    60  H    0.191893
    61  H    0.149421
    62  H    0.182509
    63  H    0.162209
    64  H    0.167220
    65  H    0.188980
    66  H    0.182100
    67  H    0.161778
 Sum of Mulliken charges =   0.00000
 Mulliken charges with hydrogens summed into heavy atoms:
               1
     1  C   -0.593311
     2  C   -0.250818
     3  C   -0.079199
     4  C    0.668892
     5  C   -0.071885
     6  C    0.320429
    11  N    0.220841
    12  C   -0.257066
    13  C    0.947065
    14  C   -0.374737
    15  C   -0.215691
    16  C   -0.215364
    17  C   -0.013510
    18  C   -0.110412
    19  N    0.639689
    20  C    0.020438
    21  C    0.180038
    22  C   -0.522389
    23  C    0.213573
    24  C   -0.458149
    25  C    0.071196
    26  C   -0.312953
    27  O   -0.312192
    28  O   -0.303496
    29  O   -0.307826
    30  C   -0.117782
    31  C   -0.101575
    35  N    0.627186
    37  N    0.643442
    39  C   -0.191602
    41  C   -0.128553
    43  C   -0.061839
    44  C    0.453612
    45  C    0.550586
    46  C   -0.118773
    48  C   -0.020354
    49  C    0.058679
    51  C   -0.198952
    53  C    0.048395
    55  C   -0.215541
    57  C   -0.110090
 APT charges:
               1
     1  C    0.322539
     2  C    0.840835
     3  C    0.003413
     4  C   -0.143608
     5  C   -0.254975
     6  C   -0.070559
     7  H    0.051073
     8  H    0.044925
     9  H    0.058218
    10  H    0.037187
    11  N   -0.663524
    12  C    0.615023
    13  C   -0.128942
    14  C   -0.035388
    15  C   -0.050719
    16  C   -0.067157
    17  C   -0.054380
    18  C   -0.063086
    19  N   -1.356731
    20  C    1.396164
    21  C   -1.595955
    22  C    1.420746
    23  C   -1.450014
    24  C    1.330226
    25  C   -1.426335
    26  C    1.379178
    27  O   -0.850865
    28  O   -0.858482
    29  O   -0.875707
    30  C    1.231340
    31  C    1.189642
    32  H    0.114345
    33  H    0.293591
    34  H   -0.019655
    35  N   -1.240972
    36  H    0.111594
    37  N   -1.184646
    38  H    0.106695
    39  C    0.801355
    40  H    0.288901
    41  C    0.812882
    42  H    0.298396
    43  C   -0.253610
    44  C   -0.188925
    45  C   -0.177902
    46  C    0.097816
    47  H    0.058340
    48  C   -0.248144
    49  C    0.017382
    50  H    0.068317
    51  C   -0.167035
    52  H    0.026993
    53  C    0.010864
    54  H    0.064413
    55  C   -0.174144
    56  H    0.026553
    57  C    0.098387
    58  H    0.056498
    59  H    0.031490
    60  H    0.029056
    61  H    0.031205
    62  H    0.029178
    63  H    0.049166
    64  H    0.022018
    65  H    0.083679
    66  H    0.023402
    67  H    0.028436
 Sum of APT charges =   0.00000
 APT charges with hydrogens summed into heavy atoms:
               1
     1  C    0.322539
     2  C    0.840835
     3  C    0.040601
     4  C   -0.085391
     5  C   -0.210050
     6  C   -0.019487
    11  N   -0.663524
    12  C    0.595368
    13  C   -0.128942
    14  C    0.013778
    15  C   -0.028702
    16  C   -0.038721
    17  C   -0.030978
    18  C    0.020594
    19  N   -1.063140
    20  C    1.510509
    21  C   -1.595955
    22  C    1.420746
    23  C   -1.450014
    24  C    1.330226
    25  C   -1.426335
    26  C    1.379178
    27  O   -0.850865
    28  O   -0.858482
    29  O   -0.875707
    30  C    1.342935
    31  C    1.296337
    35  N   -0.952071
    37  N   -0.886249
    39  C    0.801355
    41  C    0.812882
    43  C   -0.195270
    44  C   -0.120607
    45  C   -0.113489
    46  C    0.124809
    48  C   -0.191646
    49  C    0.043935
    51  C   -0.135545
    53  C    0.039920
    55  C   -0.142939
    57  C    0.127566
 Electronic spatial extent (au):  <R**2>=          64089.5196
 Charge=              0.0000 electrons
 Dipole moment (field-independent basis, Debye):
    X=             -0.5893    Y=             -0.9552    Z=              1.1736  Tot=              1.6239
 Quadrupole moment (field-independent basis, Debye-Ang):
   XX=           -216.1078   YY=           -191.8072   ZZ=           -235.6200
   XY=              3.6550   XZ=            -21.1800   YZ=             -3.9554
 Traceless Quadrupole moment (field-independent basis, Debye-Ang):
   XX=             -1.5961   YY=             22.7045   ZZ=            -21.1084
   XY=              3.6550   XZ=            -21.1800   YZ=             -3.9554
 Octapole moment (field-independent basis, Debye-Ang**2):
  XXX=           -194.8890  YYY=          -2475.6412  ZZZ=            163.7480  XYY=           -113.6447
  XXY=           -724.4541  XXZ=             11.9870  XZZ=            -81.1398  YZZ=           -975.6947
  YYZ=             75.6935  XYZ=           -123.0935
 Hexadecapole moment (field-independent basis, Debye-Ang**3):
 XXXX=         -12664.3102 YYYY=         -62814.6274 ZZZZ=          -4279.1968 XXXY=          -2553.8935
 XXXZ=           2512.9657 YYYX=          -2946.6360 YYYZ=           1797.5420 ZZZX=           3500.8118
 ZZZY=           1765.9329 XXYY=         -12310.3579 XXZZ=          -2596.0400 YYZZ=         -12680.2484
 XXYZ=            263.8344 YYXZ=           -455.2288 ZZXY=           -877.7567
 N-N= 3.819345088607D+03 E-N=-1.172691084448D+04  KE= 1.749006247847D+03
  Exact polarizability:     579.578      39.248     978.348    -198.091     -24.579     345.052
 Approx polarizability:     819.526      34.173    1183.538    -266.368     -20.217     547.082
 No NMR shielding tensors so no spin-rotation constants.
 Leave Link  601 at Wed Oct  4 21:42:07 2023, MaxMem=  9395240960 cpu:              15.1 elap:               0.5
 (Enter /apps/gent/RHEL8/zen3x-ib/software/Gaussian/g16_C.01-iimpi-2020b/g16/l701.exe.bin)
 ... and contract with generalized density number  0.
 Compute integral second derivatives.
 R6Disp: Adding Grimme-D3 dispersion energy 2nd derivatives to the Hessian.
 Leave Link  701 at Wed Oct  4 21:42:07 2023, MaxMem=  9395240960 cpu:              13.8 elap:               0.5
 (Enter /apps/gent/RHEL8/zen3x-ib/software/Gaussian/g16_C.01-iimpi-2020b/g16/l702.exe.bin)
 L702 exits ... SP integral derivatives will be done elsewhere.
 Leave Link  702 at Wed Oct  4 21:42:07 2023, MaxMem=  9395240960 cpu:               0.1 elap:               0.0
 (Enter /apps/gent/RHEL8/zen3x-ib/software/Gaussian/g16_C.01-iimpi-2020b/g16/l703.exe.bin)
 Integral derivatives from FoFJK, PRISM(SPDF).
 Compute integral second derivatives, UseDBF=F ICtDFT=           0.
 Calling FoFJK, ICntrl=    100127 FMM=F ISym2X=0 I1Cent= 0 IOpClX= 0 NMat=1 NMatS=1 NMatT=0.
 FoFJK:  IHMeth= 1 ICntrl=  100127 DoSepK=F KAlg= 0 I1Cent=           0 FoldK=F
 IRaf=         0 NMat=       1 IRICut=       1 DoRegI=T DoRafI=F ISym2E= 0 IDoP0=0 IntGTp=1.
 FoFCou: FMM=F IPFlag=           0 FMFlag=      100000 FMFlg1=        2800
         NFxFlg=           0 DoJE=F BraDBF=F KetDBF=F FulRan=T
         wScrn=  0.000000 ICntrl=    100127 IOpCl=  0 I1Cent=           0 NGrid=           0
         NMat0=    1 NMatS0=      1 NMatT0=    0 NMatD0=    1 NMtDS0=    0 NMtDT0=    0
 Symmetry not used in FoFCou.
 Leave Link  703 at Wed Oct  4 21:56:03 2023, MaxMem=  9395240960 cpu:           26418.8 elap:             835.6
 (Enter /apps/gent/RHEL8/zen3x-ib/software/Gaussian/g16_C.01-iimpi-2020b/g16/l716.exe.bin)
 Dipole        =-2.31854382D-01-3.75786396D-01 4.61721754D-01
 Polarizability= 5.79578144D+02 3.92483090D+01 9.78348016D+02
                -1.98090777D+02-2.45791072D+01 3.45051638D+02
 Full mass-weighted force constant matrix:
 Low frequencies ---   -0.9760   -0.0016   -0.0008   -0.0006    0.9940    1.6459
 Low frequencies ---    6.7229    8.1819    9.9397
 Diagonal vibrational polarizability:
      263.0566000     178.5553761     197.1330602
 Harmonic frequencies (cm**-1), IR intensities (KM/Mole), Raman scattering
 activities (A**4/AMU), depolarization ratios for plane and unpolarized
 incident light, reduced masses (AMU), force constants (mDyne/A),
 and normal coordinates:
                      1                      2                      3
                      A                      A                      A
 Frequencies --      6.6900                 8.1555                 9.9156
 Red. masses --      4.0383                 3.7309                 3.6096
 Frc consts  --      0.0001                 0.0001                 0.0002
 IR Inten    --      0.3059                 0.0715                 0.0001
  Atom  AN      X      Y      Z        X      Y      Z        X      Y      Z
     1   6    -0.05   0.00  -0.04    -0.01   0.00  -0.01    -0.01   0.00  -0.00
     2   6    -0.04   0.00  -0.03    -0.01   0.00  -0.02    -0.00   0.00   0.00
     3   6     0.02   0.00   0.09    -0.00   0.00  -0.00     0.00   0.00   0.01
     4   6    -0.12   0.01  -0.16    -0.02   0.00  -0.03    -0.01   0.00  -0.01
     5   6     0.02   0.00   0.10    -0.01   0.00  -0.01     0.00   0.00   0.02
     6   6    -0.12   0.01  -0.16    -0.02   0.00  -0.03    -0.01   0.00  -0.02
     7   1    -0.18   0.01  -0.26    -0.02  -0.00  -0.03    -0.02   0.00  -0.03
     8   1     0.07  -0.00   0.20    -0.00   0.00   0.00     0.01   0.00   0.03
     9   1    -0.18   0.01  -0.27    -0.03   0.00  -0.04    -0.02   0.00  -0.02
    10   1     0.07  -0.00   0.19     0.00   0.00   0.01     0.01   0.00   0.02
    11   7    -0.06   0.00  -0.04    -0.01   0.00  -0.00    -0.01   0.00  -0.01
    12   6     0.06   0.00   0.01     0.01   0.00   0.00     0.00  -0.00  -0.01
    13   6     0.06   0.00   0.01     0.01   0.00   0.01    -0.00  -0.00  -0.01
    14   6     0.21  -0.01   0.07     0.03   0.01   0.02     0.01  -0.01  -0.01
    15   6     0.21  -0.01   0.07     0.03   0.01   0.03     0.01  -0.01  -0.02
    16   6     0.06   0.00   0.02     0.02   0.00   0.03    -0.01  -0.00  -0.02
    17   6    -0.09   0.01  -0.04    -0.00  -0.00   0.02    -0.02   0.00  -0.03
    18   6    -0.09   0.01  -0.04    -0.00  -0.00   0.01    -0.02   0.00  -0.02
    19   7    -0.04   0.00  -0.01    -0.01   0.00  -0.02    -0.00   0.00   0.01
    20   6    -0.03  -0.00  -0.01    -0.01   0.00  -0.02     0.00   0.00   0.01
    21   6    -0.02  -0.00  -0.01    -0.01   0.00  -0.02     0.00   0.00   0.01
    22   6    -0.02  -0.01  -0.00    -0.01  -0.00  -0.02     0.01   0.00   0.02
    23   6    -0.01  -0.01   0.00    -0.01  -0.00  -0.02     0.00   0.00   0.01
    24   6    -0.00  -0.00   0.00    -0.01   0.00  -0.02    -0.00   0.00  -0.00
    25   6    -0.01   0.01  -0.00    -0.01   0.00  -0.02    -0.00   0.00   0.00
    26   6    -0.02   0.01  -0.00    -0.01   0.00  -0.02     0.00   0.00   0.01
    27   8    -0.02   0.01  -0.00    -0.01   0.00  -0.02    -0.00   0.00   0.00
    28   8    -0.02  -0.01  -0.00    -0.01  -0.00  -0.03     0.01  -0.00   0.03
    29   8     0.00   0.00   0.01    -0.01   0.00  -0.02    -0.01   0.00  -0.02
    30   6    -0.01   0.01  -0.00    -0.01   0.00  -0.02    -0.00   0.00  -0.00
    31   6     0.00  -0.01   0.01    -0.00  -0.00  -0.01     0.00  -0.00   0.01
    32   1    -0.03  -0.00  -0.01    -0.01  -0.00  -0.02     0.00   0.00   0.02
    33   1    -0.03   0.01   0.00    -0.01   0.00  -0.02    -0.00   0.00   0.01
    34   1     0.18  -0.00   0.05     0.02   0.01   0.01     0.02  -0.00  -0.00
    35   7    -0.00   0.01  -0.00    -0.01   0.00  -0.02    -0.00   0.00  -0.01
    36   1    -0.01   0.01  -0.01    -0.01   0.00  -0.02    -0.00   0.01  -0.00
    37   7     0.00  -0.02   0.02    -0.00  -0.00  -0.01     0.01  -0.00   0.02
    38   1     0.01  -0.01   0.02    -0.00  -0.00  -0.01     0.00  -0.00   0.00
    39   6     0.00   0.02  -0.01     0.00   0.00  -0.00     0.00   0.00   0.00
    40   1     0.01   0.01   0.00    -0.01   0.00  -0.03    -0.01   0.00  -0.03
    41   6     0.01  -0.02   0.02     0.01  -0.00   0.02     0.00  -0.00   0.01
    42   1    -0.01  -0.02   0.01    -0.01  -0.00  -0.03     0.02  -0.00   0.03
    43   6     0.03   0.02   0.03    -0.07  -0.00  -0.12    -0.09   0.00  -0.16
    44   6     0.01  -0.02   0.01     0.10  -0.01   0.20    -0.06   0.00  -0.13
    45   6    -0.03   0.02  -0.05     0.07   0.00   0.13     0.09   0.00   0.17
    46   6     0.03   0.02   0.02    -0.06  -0.00  -0.11    -0.09  -0.00  -0.16
    47   1     0.05   0.01   0.06    -0.12  -0.00  -0.23    -0.16   0.00  -0.29
    48   6     0.02  -0.03   0.05    -0.07   0.00  -0.13     0.07  -0.01   0.13
    49   6     0.02  -0.03   0.02     0.10  -0.01   0.21    -0.06  -0.00  -0.13
    50   1    -0.00  -0.02  -0.02     0.17  -0.02   0.33    -0.12   0.01  -0.25
    51   6     0.01   0.03  -0.01     0.01  -0.00   0.02     0.00  -0.00   0.01
    52   1     0.05   0.02   0.05    -0.11  -0.00  -0.21    -0.16  -0.00  -0.28
    53   6    -0.02   0.03  -0.05     0.08  -0.00   0.14     0.09   0.00   0.17
    54   1    -0.05   0.02  -0.08     0.13   0.00   0.24     0.17   0.01   0.32
    55   6     0.03  -0.03   0.04     0.03  -0.00   0.05     0.00  -0.01  -0.00
    56   1     0.01  -0.03   0.00     0.17  -0.01   0.35    -0.11   0.00  -0.24
    57   6     0.03  -0.04   0.06    -0.06   0.00  -0.12     0.07  -0.01   0.13
    58   1     0.02  -0.03   0.07    -0.14   0.01  -0.27     0.12  -0.01   0.24
    59   1     0.01   0.04  -0.02     0.01  -0.01   0.02     0.00  -0.00   0.01
    60   1    -0.04   0.03  -0.08     0.13  -0.00   0.24     0.16  -0.00   0.31
    61   1     0.03  -0.04   0.05     0.03  -0.00   0.07     0.00  -0.01  -0.00
    62   1     0.04  -0.04   0.08    -0.12   0.01  -0.24     0.12  -0.02   0.23
    63   1     0.32  -0.01   0.11     0.04   0.01   0.02     0.03  -0.01  -0.00
    64   1     0.32  -0.01   0.12     0.05   0.01   0.04     0.02  -0.01  -0.01
    65   1    -0.21   0.01  -0.09    -0.02  -0.00   0.00    -0.03   0.01  -0.02
    66   1    -0.21   0.01  -0.08    -0.01  -0.01   0.02    -0.03   0.01  -0.03
    67   1     0.06   0.00   0.02     0.02   0.00   0.03    -0.01  -0.00  -0.03
                      4                      5                      6
                      A                      A                      A
 Frequencies --     11.2208                17.8285                24.6938
 Red. masses --      6.1947                 5.8888                 6.9551
 Frc consts  --      0.0005                 0.0011                 0.0025
 IR Inten    --      0.3507                 0.0582                 0.5737
[...]
 00669,-0.00002793,0.00003186,-0.00000198,0.00002505,0.00000614,0.00000
 571,0.00000646,0.00000036,0.00000724,-0.00000894,0.00000676,-0.0002123
 3,0.00055737,0.00088952,-0.00057004,0.00172821,-0.00155514,0.00868399,
 0.01352839,-0.01677322,0.00276943,-0.00392727,-0.00171013,-0.00046438,
 -0.00054163,0.00009177,0.00205288,-0.00107505,0.00224611,-0.00060597,-
 0.00289075,0.00539238,0.08128734,0.11066097,-0.23697374,0.00005305,0.0
 0008606,-0.00002610,-0.00004899,-0.00009717,0.00002115,-0.00000695,0.0
 0009362,0.00000341,-0.00004140,-0.00004177,0.00002093,0.00001360,0.000
 02985,-0.00000624,0.00000182,-0.00000985,-0.00000061,-0.00001899,0.000
 02703,0.00000944,0.00004125,-0.00004272,-0.00001977,-0.00001471,0.0000
 1431,0.00000588,0.00001706,0.00000738,-0.00001062,-0.00000236,0.000016
 63,0.00000104,0.00002037,-0.00003033,-0.00000945,-0.00002947,-0.000000
 68,0.00001523,-0.00000397,-0.00000536,0.00000243,0.00000679,-0.0000098
 6,-0.00000395,0.00000076,-0.00003240,0.00007439,-0.00001136,0.00003317
 ,0.00000638,0.00000135,-0.00000239,-0.00000057,0.00002612,0.00000081,-
 0.00001385,0.00000008,0.00000025,0.00000015,0.00001582,-0.00001032,-0.
 00000892,0.00000027,-0.00000135,0.00000003,-0.00001521,-0.00000920,0.0
 0000758,-0.00000341,-0.00000561,0.00000257,-0.00000353,0.00000446,0.00
 000194,0.00000170,0.00000352,-0.00000092,-0.00000358,-0.00000066,0.000
 00169,0.00000187,-0.00000131,-0.00000108,0.00000017,-0.00000072,0.0000
 0004,0.00000457,0.00000005,-0.00000285,0.00000037,-0.00000131,-0.00000
 048,-0.00000027,-0.00000104,0.00000026,-0.00000314,0.00000042,0.000001
 70,-0.00000005,0.00000075,0.00000010,0.00000110,0.00000160,-0.00000075
 ,0.00000125,0.00000028,-0.00000054,0.00000167,0.00000260,-0.00000091,0
 .00000021,0.00000075,0.00000009,-0.00000221,-0.00000077,0.00000078,-0.
 00000045,0.00000032,0.00000083,-0.00000047,0.00000042,0.00000032,-0.00
 000054,-0.00000031,0.00000039,0.00000060,0.00000036,-0.00000010,0.0000
 0054,-0.00000040,0.00000004,0.00050786,0.00071835,-0.00081285,-0.00034
 341,0.00011626,-0.00013477,-0.09102927,-0.11888088,0.24857795,-0.00000
 947,0.00000369,0.00001305,-0.00000280,-0.00002240,-0.00000449,0.000001
 33,0.00000400,-0.00001025,-0.00001458,0.00000667,-0.00000137,0.0000051
 3,0.00000996,-0.00000370,0.00000858,-0.00000119,0.00000462,0.00000057,
 -0.00000329,0.00000366,-0.00000070,0.00000246,0.00000160,0.00000116,-0
 .00000007,0.00000062,0.00000362,-0.00000207,0.00000479,0.00009870,0.00
 000763,0.00002643,0.00021753,-0.00009552,-0.00003610,0.00716215,-0.001
 01061,0.00211694,-0.00075771,-0.00030742,-0.00035091,0.00551122,-0.001
 84612,0.00342174,0.00036100,0.00626948,0.00792751,-0.06067813,0.037446
 96,0.06894814,0.00392776,-0.00162958,-0.00179884,0.00001424,0.00003419
 ,-0.00000762,-0.00001355,-0.00003070,0.00000986,-0.00000403,0.00002925
 ,0.00000327,-0.00000797,-0.00001361,0.00000468,0.00000043,0.00000936,-
 0.00000073,0.00000526,-0.00000387,-0.00000221,-0.00000972,0.00000936,0
 .00000451,0.00001680,-0.00001475,-0.00000793,-0.00000831,0.00000332,0.
 00000181,0.00000049,0.00000437,-0.00000231,-0.00000254,0.00000626,0.00
 000056,0.00000855,-0.00001302,-0.00000447,-0.00000524,-0.00000011,0.00
 000266,0.00000039,-0.00000146,0.00000194,0.00000459,-0.00000313,0.0000
 0037,-0.00030098,-0.00002093,-0.00012713,-0.00000564,0.00001381,0.0000
 0247,0.00000065,-0.00000079,0.00000005,0.00000440,0.00000102,-0.000002
 89,0.00000036,-0.00000002,0.00000018,0.00000724,-0.00000460,-0.0000034
 8,0.00000100,-0.00000050,0.00000020,-0.00000291,-0.00000182,0.00000159
 ,-0.00000044,-0.00000228,0.00000107,-0.00000156,0.00000207,0.00000064,
 0.00000015,0.00000108,-0.00000026,-0.00000171,-0.00000019,0.00000053,0
 .00000073,-0.00000061,-0.00000066,0.00000010,-0.00000034,0.00000017,0.
 00000083,-0.00000058,-0.00000090,0.00000015,-0.00000035,-0.00000030,-0
 .00000007,-0.00000020,0.00000024,-0.00000152,0.00000010,0.00000063,0.0
 0000007,0.00000028,0.00000016,0.00000034,0.00000073,-0.00000063,0.0000
 0077,0.00000010,0.00000008,0.00000008,0.00000076,-0.00000029,0.0000001
 1,0.00000032,0.00000017,-0.00000050,-0.00000026,-0.00000005,0.00000024
 ,0.00000015,0.00000040,-0.00000011,0.00000022,0.00000029,-0.00000017,-
 0.00000012,0.00000046,0.00000029,0.00000003,0.00000008,-0.00000001,-0.
 00000023,0.00000032,-0.00089818,0.00008963,-0.00033714,0.00002201,0.00
 029651,0.00042489,-0.00374510,0.00039095,-0.00165516,0.05221183,0.0000
 0217,0.00010917,-0.00001298,0.00000596,0.00007610,-0.00000450,0.000014
 87,-0.00002639,0.00002840,0.00000766,-0.00002617,0.00000392,-0.0000243
 0,-0.00001945,0.00001815,0.00002343,-0.00004091,-0.00002832,-0.0000053
 5,0.00000294,-0.00000658,0.00000146,-0.00000816,-0.00000554,-0.0000043
 8,-0.00000972,0.00000006,-0.00002571,0.00000936,-0.00000714,-0.0001164
 1,-0.00010908,0.00033455,0.00062599,0.00022938,-0.00165312,-0.00122614
 ,-0.00541406,0.00104678,-0.00030845,-0.00078507,0.00082779,-0.00155694
 ,-0.00073459,0.00284284,-0.00476235,0.01159462,0.01406242,0.03746674,-
 0.13063719,-0.11512182,0.00922954,-0.01146563,-0.02704936,-0.00006966,
 -0.00012031,0.00003338,0.00006597,0.00011251,-0.00003024,-0.00000027,-
 0.00010920,-0.00000165,0.00005806,0.00004453,-0.00002907,-0.00002057,-
 0.00003292,0.00000997,0.00000592,0.00000982,-0.00000350,0.00001439,-0.
 00002839,-0.00000724,-0.00004203,0.00004567,0.00002099,0.00001261,-0.0
 0001452,-0.00000448,-0.00002926,-0.00000184,0.00001702,0.00000005,-0.0
 0001648,0.00000029,-0.00001779,0.00002686,0.00000911,0.00003840,0.0000
 0112,-0.00001960,0.00000361,0.00000426,-0.00000282,-0.00000801,0.00000
 881,0.00000275,0.00000186,-0.00051661,-0.00005902,0.00000925,-0.000030
 13,-0.00000502,-0.00000135,0.00000254,0.00000031,-0.00003399,0.0000006
 9,0.00001752,0.00000028,-0.00000034,-0.00000036,-0.00001384,0.00000886
 ,0.00000711,0.00000074,0.00000138,-0.00000072,0.00001924,0.00001116,-0
 .00000923,0.00000434,0.00000449,-0.00000304,0.00000321,-0.00000399,-0.
 00000143,-0.00000223,-0.00000393,0.00000119,0.00000307,0.00000076,-0.0
 0000136,-0.00000154,0.00000118,0.00000084,-0.00000027,0.00000058,-0.00
 000003,-0.00000580,-0.00000108,0.00000324,-0.00000037,0.00000163,0.000
 00040,0.00000017,0.00000129,-0.00000023,0.00000276,-0.00000050,-0.0000
 0129,0.00000005,-0.00000077,-0.00000014,-0.00000080,-0.00000131,0.0000
 0068,-0.00000103,-0.00000030,0.00000028,-0.00000250,-0.00000299,0.0000
 0130,-0.00000023,-0.00000063,-0.00000005,0.00000267,0.00000081,-0.0000
 0099,0.00000087,-0.00000024,-0.00000095,0.00000040,-0.00000032,-0.0000
 0035,0.00000027,0.00000032,-0.00000037,-0.00000055,-0.00000041,0.00000
 008,-0.00000103,0.00000021,0.00000024,0.00009567,0.00004031,-0.0000728
 3,-0.00026338,0.00038594,0.00073362,0.00014276,0.00069044,0.00045832,-
 0.03969327,0.13608647,0.00001314,0.00010171,-0.00001987,0.00001176,0.0
 0006805,-0.00000432,0.00000311,-0.00000927,0.00001927,0.00001095,-0.00
 001303,-0.00000281,-0.00002023,-0.00002586,0.00000930,-0.00000164,-0.0
 0002666,-0.00001929,0.00000356,0.00000448,-0.00000036,0.00000123,-0.00
 000539,-0.00000430,-0.00000265,-0.00000497,0.00000256,-0.00000506,0.00
 000433,-0.00000046,0.00000245,-0.00018940,0.00008289,0.00007928,0.0003
 1143,0.00002948,0.00206537,0.00044852,0.00261282,-0.00033077,0.0008581
 3,0.00015175,0.00346747,0.00355749,-0.00168367,0.00605519,-0.01515902,
 -0.01566106,0.06897732,-0.11515623,-0.23955316,0.00002554,0.00186122,0
 .00362124,-0.00005987,-0.00010302,0.00002860,0.00005688,0.00010053,-0.
 00002531,0.00000031,-0.00009716,-0.00000293,0.00004995,0.00004430,-0.0
 0002382,-0.00001965,-0.00003223,0.00000886,0.00000537,0.00000998,-0.00
 000249,0.00001388,-0.00002776,-0.00000783,-0.00003562,0.00004507,0.000
 01969,0.00000875,-0.00001544,-0.00000487,-0.00002464,-0.00000479,0.000
 01185,-0.00000009,-0.00001661,-0.00000041,-0.00001732,0.00002697,0.000
 00881,0.00003713,0.00000129,-0.00001862,0.00000387,0.00000404,-0.00000
 096,-0.00000643,0.00000784,0.00000314,-0.00012599,0.00000380,-0.000034
 60,0.00000906,-0.00003000,-0.00000534,-0.00000112,0.00000255,0.0000006
 3,-0.00003336,0.00000022,0.00001655,0.00000041,-0.00000028,-0.00000013
 ,-0.00001381,0.00000903,0.00000724,0.00000086,0.00000148,-0.00000030,0
 .00001931,0.00001133,-0.00000904,0.00000456,0.00000516,-0.00000197,0.0
 0000314,-0.00000403,-0.00000149,-0.00000235,-0.00000430,0.00000074,0.0
 0000305,0.00000080,-0.00000164,-0.00000158,0.00000126,0.00000070,-0.00
 000023,0.00000062,0.00000012,-0.00000607,-0.00000052,0.00000292,-0.000
 00047,0.00000173,0.00000041,0.00000034,0.00000127,-0.00000007,0.000002
 54,-0.00000060,-0.00000131,0.00000008,-0.00000086,-0.00000003,-0.00000
 092,-0.00000119,0.00000051,-0.00000081,-0.00000037,0.00000048,-0.00000
 243,-0.00000303,0.00000101,-0.00000012,-0.00000076,0.00000005,0.000002
 69,0.00000080,-0.00000139,0.00000104,-0.00000037,-0.00000044,0.0000005
 4,-0.00000031,-0.00000028,0.00000025,0.00000041,-0.00000015,-0.0000005
 7,-0.00000048,0.00000031,-0.00000072,0.00000037,0.00000045,-0.00033599
 ,-0.00005805,-0.00014835,0.00033174,-0.00075018,-0.00083764,-0.0016971
 4,-0.00018866,0.00008722,-0.07713681,0.12391872,0.25125877,-0.00005255
 ,0.00002605,-0.00002775,0.00000554,0.00001950,0.00000307,0.00000500,0.
 00001528,-0.00001832,0.00001490,-0.00000222,-0.00001549,-0.00002133,-0
 .00000099,0.00001846,-0.00000511,0.00000282,0.00000646,-0.00000009,-0.
 00000196,0.00000502,0.00000227,0.00000276,0.00000231,0.00000006,0.0000
 0053,0.00000131,0.00000146,-0.00000027,0.00000297,0.00032715,-0.000063
 26,0.00002718,-0.00103634,0.,-0.00038013,-0.00096830,0.00016457,0.0001
 5414,0.00594670,0.00046802,0.00372437,0.00425594,0.00905762,-0.0000703
 7,-0.04076612,-0.01775920,0.00721669,0.00301053,-0.01074160,-0.0007461
 4,0.00536380,-0.00116649,0.00396830,-0.00002407,-0.00004251,0.00000952
 ,0.00002414,0.00003702,-0.00000938,-0.00000185,-0.00003634,0.00000014,
 0.00002224,0.00001410,-0.00001009,-0.00000948,-0.00001085,0.00000338,0
 .00000557,0.00000303,-0.00000179,0.00000232,-0.00000815,0.00000030,-0.
 00001484,0.00001213,0.00000315,0.00000260,-0.00000260,-0.00000194,-0.0
 0001300,0.00000124,0.00000484,-0.00000144,-0.00000467,-0.00000011,-0.0
 0000345,0.00000579,0.00000224,0.00001502,0.00000046,-0.00000782,0.0000
 0081,0.00000088,-0.00000058,-0.00000158,0.00000123,0.00000159,-0.00000
 012,-0.00004112,-0.00000939,0.00000137,-0.00000663,-0.00000106,-0.0000
 0028,0.00000067,0.00000040,-0.00001349,0.00000087,0.00000675,0.0000003
 4,-0.00000012,-0.00000014,-0.00000242,0.00000163,0.00000160,0.00000094
 ,0.00000040,-0.00000014,0.00000728,0.00000427,-0.00000425,0.00000200,0
 .00000118,-0.00000008,0.00000051,-0.00000077,-0.00000051,-0.00000066,-
 0.00000142,0.00000099,0.00000018,0.00000008,-0.00000070,-0.00000032,0.
 00000027,-0.00000006,-0.00000004,0.00000010,0.00000019,-0.00000240,-0.
 00000050,0.00000106,-0.00000026,0.00000066,-0.00000036,0.00000018,0.00
 000053,0.00000027,0.00000029,-0.00000017,-0.00000040,0.00000012,-0.000
 00024,0.00000011,-0.00000005,-0.00000004,-0.00000004,0.00000006,-0.000
 00008,0.00000040,-0.00000104,-0.00000109,0.00000054,0.,-0.00000018,0.0
 0000009,0.00000084,0.00000027,-0.00000084,0.00000063,-0.00000007,0.000
 00008,0.00000019,0.,0.00000008,0.00000005,0.00000009,0.00000021,-0.000
 00010,-0.00000020,0.00000022,-0.00000032,0.00000005,0.00000041,0.00009
 574,0.00045320,0.00003371,-0.00339638,0.00012999,-0.00154742,-0.000075
 58,-0.00045929,-0.00009636,-0.00312720,0.00037534,-0.00138770,0.030423
 42,0.00002663,0.00012909,-0.00004316,0.00000828,0.00007436,-0.00000312
 ,0.00001347,-0.00002437,0.00001226,0.00001165,-0.00001070,0.00000133,-
 0.00001334,-0.00002018,0.00001182,-0.00001481,-0.00002802,-0.00001041,
 0.00000550,0.00000799,-0.00000343,0.00000170,-0.00000682,-0.00000428,-
 0.00000351,-0.00000407,0.00000219,-0.00001133,0.00000708,-0.00000303,-
 0.00005702,-0.00021591,0.00008229,0.00007735,0.00006747,-0.00000803,0.
 00009121,0.00072735,0.00003680,0.00072995,0.00063879,-0.00307039,-0.00
 194527,-0.01133572,0.00262316,-0.01770532,-0.33416233,-0.00314495,0.00
 022419,-0.01061435,-0.00295961,-0.00143493,0.00071107,0.00274399,-0.00
 006321,-0.00010788,0.00002797,0.00005868,0.00010981,-0.00002847,0.0000
 0338,-0.00010568,-0.00000453,0.00004960,0.00005036,-0.00002346,-0.0000
 1841,-0.00003605,0.00000845,0.00000140,0.00001190,-0.00000062,0.000019
 43,-0.00003221,-0.00001075,-0.00004107,0.00005164,0.00002190,0.0000111
 5,-0.00001838,-0.00000564,-0.00002203,-0.00000849,0.00001085,0.0000014
 5,-0.00001969,-0.00000111,-0.00002163,0.00003417,0.00001188,0.00003777
 ,0.00000111,-0.00001896,0.00000466,0.00000508,-0.00000177,-0.00000769,
 0.00000985,0.00000481,-0.00000567,-0.00000270,-0.00000217,0.00001228,-
 0.00003759,-0.00000714,-0.00000147,0.00000309,0.00000080,-0.00003376,-
 0.00000063,0.00001726,0.00000023,-0.00000029,-0.00000009,-0.00001810,0
 .00001170,0.00000913,0.00000033,0.00000170,0.00000002,0.00001958,0.000
 01162,-0.00000975,0.00000456,0.00000643,-0.00000219,0.00000396,-0.0000
 0519,-0.00000207,-0.00000238,-0.00000385,0.00000093,0.00000413,0.00000
 094,-0.00000183,-0.00000204,0.00000157,0.00000109,-0.00000022,0.000000
 82,0.00000012,-0.00000607,-0.00000020,0.00000316,-0.00000042,0.0000016
 3,0.00000041,0.00000033,0.00000136,-0.00000020,0.00000336,-0.00000058,
 -0.00000169,0.00000006,-0.00000101,-0.00000005,-0.00000135,-0.00000160
 ,0.00000061,-0.00000121,-0.00000041,0.00000062,-0.00000213,-0.00000325
 ,0.00000094,-0.00000014,-0.00000097,0.00000004,0.00000266,0.00000103,-
 0.00000131,0.00000089,-0.00000048,-0.00000050,0.00000064,-0.00000047,-
 0.00000037,0.00000042,0.00000051,-0.00000027,-0.00000069,-0.00000048,0
 .00000032,-0.00000056,0.00000051,0.00000030,-0.00011157,-0.00064407,0.
 00018098,0.00041672,0.00065425,-0.00032085,0.00006799,-0.00052946,-0.0
 0025019,0.00008133,0.00064938,0.00051591,0.01955041,0.35400041,-0.0000
 4166,-0.00004933,0.00002805,-0.00000049,0.00000505,-0.00000087,0.00000
 305,0.00002610,-0.00000695,0.00000439,-0.00000517,-0.00000318,-0.00001
 379,0.00000136,0.00000846,0.00000910,0.00000616,-0.00000683,-0.0000037
 3,-0.00000473,0.00000290,0.00000032,0.00000340,0.00000040,0.00000028,0
 .00000030,0.00000047,-0.00000199,0.00000063,-0.00000193,0.00008675,0.0
 0009975,0.00016234,-0.00037956,0.00000049,-0.00016787,0.00013575,-0.00
 002708,-0.00127802,0.00375932,-0.00247507,-0.00305590,-0.00194045,-0.0
 2645440,0.00435330,0.00723482,-0.00306363,-0.05661833,0.00110562,0.026
 10428,0.00489268,0.00392883,0.00209077,-0.00313891,-0.00000436,-0.0000
 0919,0.00000263,0.00000547,0.00000563,-0.00000151,-0.00000086,-0.00000
 555,-0.00000003,0.00000392,0.00000192,-0.00000112,-0.00000146,-0.00000
 138,-0.00000011,0.00000089,0.00000061,0.00000019,0.00000070,-0.0000014
 4,0.00000028,-0.00000258,0.00000211,-0.00000063,-0.00000007,-0.0000002
 4,-0.00000026,-0.00000255,0.00000064,0.00000018,-0.00000031,-0.0000007
 8,-0.00000031,-0.00000063,0.00000129,0.00000045,0.00000182,0.00000013,
 -0.00000097,-0.00000005,-0.00000017,-0.00000006,0.00000011,0.,0.000000
 41,-0.00001229,0.00009291,0.00004224,0.00000031,-0.00000133,-0.0000003
 5,-0.00000002,0.00000010,0.00000020,-0.00000160,0.00000013,0.00000080,
 0.00000005,0.,0.,-0.00000048,0.00000039,0.00000048,0.00000017,0.000000
 05,0.00000012,0.00000082,0.00000064,-0.00000072,0.00000038,0.00000010,
 0.00000030,0.00000005,-0.00000018,-0.00000021,-0.00000002,-0.00000046,
 0.00000021,-0.00000007,0.,-0.00000032,-0.00000011,0.00000004,-0.000000
 06,0.00000004,0.00000002,0.00000010,-0.00000038,-0.00000006,0.00000012
 ,-0.00000013,0.00000017,-0.00000016,0.00000010,0.00000007,0.00000016,0
 .00000001,0.,-0.00000017,0.00000004,-0.00000005,0.00000009,-0.00000004
 ,-0.00000001,-0.00000002,0.00000005,-0.00000001,0.00000019,-0.00000015
 ,-0.00000015,0.00000009,0.00000003,-0.00000002,0.00000006,0.,0.0000000
 4,-0.00000030,0.00000014,0.,0.00000017,0.00000008,-0.00000002,0.000000
 08,0.00000005,0.00000004,0.00000012,0.00000002,-0.00000001,0.00000011,
 0.00000004,0.,0.00000016,-0.00006202,-0.00130413,0.00002913,-0.0015029
 3,0.00043453,0.00006802,-0.00000883,0.00116757,0.00011579,-0.00143676,
 -0.00025687,0.00009231,-0.01086317,0.00361405,0.05448235\\0.00000244,0
 .00000172,-0.00000036,-0.00000173,0.00000151,0.00000047,-0.00000183,-0
 .00000046,0.00000067,0.00000033,-0.00000056,0.00000080,0.00000109,-0.0
 0000006,-0.00000154,0.00000055,0.00000095,-0.00000009,0.00000014,0.000
 00024,0.00000054,-0.00000031,0.00000008,0.00000003,0.00000003,0.000000
 97,-0.00000009,0.00000047,-0.00000083,-0.00000033,-0.00000356,-0.00000
 262,-0.00000021,0.00000182,0.00000140,0.00000064,-0.00000079,-0.000001
 33,-0.00000101,-0.00000004,0.00000037,0.00000004,-0.00000058,0.0000002
 2,0.00000042,0.,-0.00000002,-0.00000016,0.00000013,-0.00000017,-0.0000
 0048,0.00000073,0.00000079,0.00000093,0.00000360,-0.00000248,-0.000000
 83,-0.00000046,-0.00000284,0.00000032,-0.00000269,0.00000147,0.0000003
 6,0.00000002,0.00000077,-0.00000103,0.00000258,-0.00000083,0.00000030,
 -0.00000120,0.00000027,0.00000038,-0.00000070,0.00000036,-0.00000150,0
 .00000456,0.00000051,0.00000125,-0.00000192,-0.00000080,-0.00000055,0.
 00000015,0.00000068,0.00000042,0.00000010,0.00000008,-0.00000009,0.000
 00036,0.00000027,0.00000025,-0.00000110,-0.00000061,0.00000045,0.00000
 052,-0.00000108,0.00000016,-0.00000211,0.00000157,0.00000063,0.0000001
 1,0.00000061,-0.00000035,-0.00000371,0.00000087,0.00000037,0.00000021,
 0.00000010,-0.00000072,0.00000269,0.00000282,-0.00000167,-0.00000007,-
 0.00000030,-0.00000005,0.00000232,-0.00000104,-0.00000154,0.00000132,-
 0.00000030,-0.00000059,-0.00000260,-0.00000168,0.00000271,-0.00000056,
 -0.00000146,0.00000097,-0.00000152,-0.00000004,0.00000020,0.00000231,-
 0.00000093,-0.00000067,-0.00000072,0.00000145,-0.00000043,0.00000065,-
 0.00000027,-0.00000125,-0.00000025,-0.00000011,-0.00000035,0.00000159,
 0.00000106,0.00000020,-0.00000179,0.00000107,0.00000162,-0.00000028,0.
 00000068,0.00000080,-0.00000065,0.00000119,-0.00000052,-0.00000056,0.0
 0000003,-0.00000051,-0.00000083,-0.00000198,-0.00000057,-0.00000067,-0
 .00000023,-0.00000048,0.00000162,-0.00000004,0.00000037,0.00000058,-0.
 00000045,0.00000040,-0.00000029,-0.00000154,0.00000072,0.00000028,0.00
 000007,0.00000063,-0.00000044,-0.00000012,-0.00000093,0.,0.00000061,-0
 .00000103,0.00000056,0.00000013,0.00000076,0.00000037,0.00000043,0.000
 00099,-0.00000039,-0.00000008,-0.00000022,-0.00000018,-0.00000007,-0.0
 0000031,0.00000008,-0.00000024,0.00000009,0.00000013,0.00000003,0.0000
 0045,0.00000013,0.00000018,0.00000013\\\@
 The archive entry for this job was punched.


 NOBODY LOSES ALL THE TIME
 I HAD AN UNCLE NAMED
 SOL WHO WAS A BORN FAILURE AND
 NEARLY EVERYBODY SAID HE SHOULD HAVE GONE
 INTO VAUDEVILLE PERHAPS BECAUSE MY UNCLE SOL COULD
 SING MCCANN HE WAS A DIVER ON XMAS EVE LIKE HELL ITSELF WHICH
 MAY OR MAY NOT ACCOUNT FOR THE FACT THAT MY UNCLE
 SOL INDULGED IN THAT POSSIBLY MOST INEXCUSABLE
 OF ALL TO USE A HIGHFALOOTIN PHRASE
 LUXURIES THAT IS OR TO
 WIT FARMING AND BE
 IT NEEDLESSLY
 ADDED
 MY UNCLE SOL'S FARM     
 FAILED BECAUSE THE CHICKENS
 ATE THE VEGETABLES SO
 MY UNCLE SOL HAD A
 CHICKEN FARM TILL THE
 SKUNKS ATE THE CHICKENS WHEN 
 MY UNCLE SOL
 HAD A SKUNK FARM BUT
 THE SKUNKS CAUGHT COLD AND
 DIED AND SO
 MY UNCLE SOL IMITATED THE
 SKUNKS IN A SUBTLE MANNER
 OR BY DROWNING HIMSELF IN THE WATERTANK
 BUT SOMEBODY WHO'D GIVEN MY UNCLE SOL A VICTOR     
 VICTROLA AND RECORDS WHILE HE LIVED PRESENTED TO
 HIM UPON THE AUSPICIOUS OCCASION OF HIS DECEASE A
 SCRUMPTIOUS NOT TO MENTION SPLENDIFEROUS FUNERAL WITH
 TALL BOYS IN BLACK GLOVES AND FLOWERS AND EVERYTHING AND
 I REMEMBER WE ALL CRIED LIKE THE MISSOURI
 WHEN MY UNCLE SOL'S COFFIN LURCHED BECAUSE     
 SOMEBODY PRESSED A BUTTON
 (AND DOWN WENT
 MY UNCLE
 SOL
 AND STARTED A WORM FARM)
           E. E. CUMMINGS
 Job cpu time:       1 days 10 hours 27 minutes 16.2 seconds.
 Elapsed time:       0 days  1 hours  5 minutes 33.5 seconds.
 File lengths (MBytes):  RWF=   6027 Int=      0 D2E=      0 Chk=     78 Scr=      1
 Normal termination of Gaussian 16 at Wed Oct  4 21:56:04 2023.
